
                                 *****************
                                 * O   R   C   A *
                                 *****************

                                            #,                                       
                                            ###                                      
                                            ####                                     
                                            #####                                    
                                            ######                                   
                                           ########,                                 
                                     ,,################,,,,,                         
                               ,,#################################,,                 
                          ,,##########################################,,             
                       ,#########################################, ''#####,          
                    ,#############################################,,   '####,        
                  ,##################################################,,,,####,       
                ,###########''''           ''''###############################       
              ,#####''   ,,,,##########,,,,          '''####'''          '####       
            ,##' ,,,,###########################,,,                        '##       
           ' ,,###''''                  '''############,,,                           
         ,,##''                                '''############,,,,        ,,,,,,###''
      ,#''                                            '''#######################'''  
     '                                                          ''''####''''         
             ,#######,   #######,   ,#######,      ##                                
            ,#'     '#,  ##    ##  ,#'     '#,    #''#        ######   ,####,        
            ##       ##  ##   ,#'  ##            #'  '#       #        #'  '#        
            ##       ##  #######   ##           ,######,      #####,   #    #        
            '#,     ,#'  ##    ##  '#,     ,#' ,#      #,         ##   #,  ,#        
             '#######'   ##     ##  '#######'  #'      '#     #####' # '####'        



                  #######################################################
                  #                        -***-                        #
                  #          Department of theory and spectroscopy      #
                  #    Directorship and core code : Frank Neese         #
                  #        Max Planck Institute fuer Kohlenforschung    #
                  #                Kaiser Wilhelm Platz 1               #
                  #                 D-45470 Muelheim/Ruhr               #
                  #                      Germany                        #
                  #                                                     #
                  #                  All rights reserved                #
                  #                        -***-                        #
                  #######################################################


                         Program Version 5.0.3 -  RELEASE  -


 With contributions from (in alphabetic order):
   Daniel Aravena         : Magnetic Suceptibility
   Michael Atanasov       : Ab Initio Ligand Field Theory (pilot matlab implementation)
   Alexander A. Auer      : GIAO ZORA, VPT2 properties, NMR spectrum
   Ute Becker             : Parallelization
   Giovanni Bistoni       : ED, misc. LED, open-shell LED, HFLD
   Martin Brehm           : Molecular dynamics
   Dmytro Bykov           : SCF Hessian
   Vijay G. Chilkuri      : MRCI spin determinant printing, contributions to CSF-ICE
   Dipayan Datta          : RHF DLPNO-CCSD density
   Achintya Kumar Dutta   : EOM-CC, STEOM-CC
   Dmitry Ganyushin       : Spin-Orbit,Spin-Spin,Magnetic field MRCI
   Miquel Garcia          : C-PCM and meta-GGA Hessian, CC/C-PCM, Gaussian charge scheme
   Yang Guo               : DLPNO-NEVPT2, F12-NEVPT2, CIM, IAO-localization
   Andreas Hansen         : Spin unrestricted coupled pair/coupled cluster methods
   Benjamin Helmich-Paris : MC-RPA, TRAH-SCF, COSX integrals
   Lee Huntington         : MR-EOM, pCC
   Robert Izsak           : Overlap fitted RIJCOSX, COSX-SCS-MP3, EOM
   Marcus Kettner         : VPT2
   Christian Kollmar      : KDIIS, OOCD, Brueckner-CCSD(T), CCSD density, CASPT2, CASPT2-K
   Simone Kossmann        : Meta GGA functionals, TD-DFT gradient, OOMP2, MP2 Hessian
   Martin Krupicka        : Initial AUTO-CI
   Lucas Lang             : DCDCAS
   Marvin Lechner         : AUTO-CI (C++ implementation), FIC-MRCC
   Dagmar Lenk            : GEPOL surface, SMD
   Dimitrios Liakos       : Extrapolation schemes; Compound Job, initial MDCI parallelization
   Dimitrios Manganas     : Further ROCIS development; embedding schemes
   Dimitrios Pantazis     : SARC Basis sets
   Anastasios Papadopoulos: AUTO-CI, single reference methods and gradients
   Taras Petrenko         : DFT Hessian,TD-DFT gradient, ASA, ECA, R-Raman, ABS, FL, XAS/XES, NRVS
   Peter Pinski           : DLPNO-MP2, DLPNO-MP2 Gradient
   Christoph Reimann      : Effective Core Potentials
   Marius Retegan         : Local ZFS, SOC
   Christoph Riplinger    : Optimizer, TS searches, QM/MM, DLPNO-CCSD(T), (RO)-DLPNO pert. Triples
   Tobias Risthaus        : Range-separated hybrids, TD-DFT gradient, RPA, STAB
   Michael Roemelt        : Original ROCIS implementation
   Masaaki Saitow         : Open-shell DLPNO-CCSD energy and density
   Barbara Sandhoefer     : DKH picture change effects
   Avijit Sen             : IP-ROCIS
   Kantharuban Sivalingam : CASSCF convergence, NEVPT2, FIC-MRCI
   Bernardo de Souza      : ESD, SOC TD-DFT
   Georgi Stoychev        : AutoAux, RI-MP2 NMR, DLPNO-MP2 response
   Willem Van den Heuvel  : Paramagnetic NMR
   Boris Wezisla          : Elementary symmetry handling
   Frank Wennmohs         : Technical directorship


 We gratefully acknowledge several colleagues who have allowed us to
 interface, adapt or use parts of their codes:
   Stefan Grimme, W. Hujo, H. Kruse, P. Pracht,  : VdW corrections, initial TS optimization,
                  C. Bannwarth, S. Ehlert          DFT functionals, gCP, sTDA/sTD-DF
   Ed Valeev, F. Pavosevic, A. Kumar             : LibInt (2-el integral package), F12 methods
   Garnet Chan, S. Sharma, J. Yang, R. Olivares  : DMRG
   Ulf Ekstrom                                   : XCFun DFT Library
   Mihaly Kallay                                 : mrcc  (arbitrary order and MRCC methods)
   Jiri Pittner, Ondrej Demel                    : Mk-CCSD
   Frank Weinhold                                : gennbo (NPA and NBO analysis)
   Christopher J. Cramer and Donald G. Truhlar   : smd solvation model
   Lars Goerigk                                  : TD-DFT with DH, B97 family of functionals
   V. Asgeirsson, H. Jonsson                     : NEB implementation
   FAccTs GmbH                                   : IRC, NEB, NEB-TS, DLPNO-Multilevel, CI-OPT
                                                   MM, QMMM, 2- and 3-layer-ONIOM, Crystal-QMMM,
                                                   LR-CPCM, SF, NACMEs, symmetry and pop. for TD-DFT,
                                                   nearIR, NL-DFT gradient (VV10), updates on ESD,
                                                   ML-optimized integration grids
   S Lehtola, MJT Oliveira, MAL Marques          : LibXC Library
   Liviu Ungur et al                             : ANISO software


 Your calculation uses the libint2 library for the computation of 2-el integrals
 For citations please refer to: http://libint.valeyev.net

 Your ORCA version has been built with support for libXC version: 5.1.0
 For citations please refer to: https://tddft.org/programs/libxc/

 This ORCA versions uses:
   CBLAS   interface :  Fast vector & matrix operations
   LAPACKE interface :  Fast linear algebra routines
   SCALAPACK package :  Parallel linear algebra routines
   Shared memory     :  Shared parallel matrices
   BLAS/LAPACK       :  OpenBLAS 0.3.15  USE64BITINT DYNAMIC_ARCH NO_AFFINITY Zen SINGLE_THREADED
        Core in use  :  Zen
   Copyright (c) 2011-2014, The OpenBLAS Project




***************************************
The coordinates will be read from file: start.xyz
***************************************


Your calculation utilizes the geometrical counterpoise correction gCP
Please cite in your paper:
H.Kruse, S. Grimme J.Chem.Phys., 136, (2012), 154101 
   

Your calculation utilizes the atom-pairwise dispersion correction
based on tight binding partial charges (D4)
Cite in your paper:
E.Caldeweyher, C.Bannwarth, S.Grimme, J.Chem.Phys., (2017), 147, 034112.
E.Caldeweyher, S.Ehlert, A.Hansen, H.Neugebauer, S.Grimme, J.Chem.Phys., (2018), in progress.
   

================================================================================

----- Orbital basis set information -----
Your calculation utilizes the basis: def2-mTZVPP
   Stefan Grimme, Andreas Hansen, Sebastian Ehlert, and Jan-Michael Mewes 
   J. Chem. Phys. 154, 000000 (2021). DOI: 10.1063/5.0040021

----- AuxJ basis set information -----
Your calculation utilizes the basis: def2-mTZVPP/J
   Stefan Grimme, Andreas Hansen, Sebastian Ehlert, and Jan-Michael Mewes 
   J. Chem. Phys. 154, 000000 (2021). DOI: 10.1063/5.0040021

================================================================================
                                        WARNINGS
                       Please study these warnings very carefully!
================================================================================

WARNING: Old DensityContainer found on disk!
         Will remove this file - 
         If you want to keep old densities, please start your calculation with a different basename. 

Using LibXC functional ID 497 : Re-regularized SCAN exchange by Furness et al
[ 1]  J. W. Furness, A. D. Kaplan, J. Ning, J. P. Perdew, and J. Sun, J. Phys. Chem. Lett. 11, 8208 (2020)
[ 2]  J. W. Furness, A. D. Kaplan, J. Ning, J. P. Perdew, and J. Sun, J. Phys. Chem. Lett. 11, 9248 (2020)
Using LibXC functional ID 498 : Re-regularized SCAN correlation by Furness et al
[ 1]  J. W. Furness, A. D. Kaplan, J. Ning, J. P. Perdew, and J. Sun, J. Phys. Chem. Lett. 11, 8208 (2020)
[ 2]  J. W. Furness, A. D. Kaplan, J. Ning, J. P. Perdew, and J. Sun, J. Phys. Chem. Lett. 11, 9248 (2020)
Using LibXC functional ID 497 : Re-regularized SCAN exchange by Furness et al
[ 1]  J. W. Furness, A. D. Kaplan, J. Ning, J. P. Perdew, and J. Sun, J. Phys. Chem. Lett. 11, 8208 (2020)
[ 2]  J. W. Furness, A. D. Kaplan, J. Ning, J. P. Perdew, and J. Sun, J. Phys. Chem. Lett. 11, 9248 (2020)
Using LibXC functional ID 498 : Re-regularized SCAN correlation by Furness et al
[ 1]  J. W. Furness, A. D. Kaplan, J. Ning, J. P. Perdew, and J. Sun, J. Phys. Chem. Lett. 11, 8208 (2020)
[ 2]  J. W. Furness, A. D. Kaplan, J. Ning, J. P. Perdew, and J. Sun, J. Phys. Chem. Lett. 11, 9248 (2020)

WARNING: Geometry Optimization
  ===> : Switching off AutoStart
         For restart on a previous wavefunction, please use MOREAD

INFO   : the flag for use of the SHARK integral package has been found!

================================================================================
                                       INPUT FILE
================================================================================
NAME = /home/wontleave/calc/autoopt/methylBr_F/run.copt.r2scan-3c.inp
|  1> !opt verytightscf verytightopt r2scan-3c
|  2> %MaxCore 1000
|  3> %pal nprocs 8 end
|  4> %geom
|  5> 	MaxIter 20
|  6> 	Trust 0.3
|  7> 	Constraints {B 0 5 C}  end
|  8> end
|  9> %Freq
| 10> end
| 11> * xyzfile -1 1 start.xyz
| 12> 
| 13>                          ****END OF INPUT****
================================================================================

                       *****************************
                       * Geometry Optimization Run *
                       *****************************

Geometry optimization settings:
Update method            Update   .... BFGS
Choice of coordinates    CoordSys .... Z-matrix Internals
Initial Hessian          InHess   .... Almoef's Model

Convergence Tolerances:
Energy Change            TolE     ....  2.0000e-07 Eh
Max. Gradient            TolMAXG  ....  3.0000e-05 Eh/bohr
RMS Gradient             TolRMSG  ....  8.0000e-06 Eh/bohr
Max. Displacement        TolMAXD  ....  2.0000e-04 bohr
RMS Displacement         TolRMSD  ....  1.0000e-04 bohr
Strict Convergence                ....  False
------------------------------------------------------------------------------
                        ORCA OPTIMIZATION COORDINATE SETUP
------------------------------------------------------------------------------

The optimization will be done in new redundant internal coordinates
Making redundant internal coordinates   ...  (new redundants) done
Evaluating the initial hessian          ...  (Almloef) done
Evaluating the coordinates              ...  done
Calculating the B-matrix                .... done
Calculating the G-matrix                .... done
Diagonalizing the G-matrix              .... done
Imposing constraints:
 Iter   0:  RMS(Cart)=    0.0000000000 RMS(Int)=    0.0000000000
CONVERGED
The first mode is                       ....    4
The number of degrees of freedom        ....   12
Storing new coordinates                 .... done

    -----------------------------------------------------------------
                    Redundant Internal Coordinates


    -----------------------------------------------------------------
         Definition                    Initial Value    Approx d2E/dq
    -----------------------------------------------------------------
      1. B(Br  1,C   0)                  2.0816         0.165516   
      2. B(H   2,C   0)                  1.0865         0.364792   
      3. B(H   3,C   0)                  1.0865         0.364782   
      4. B(H   4,C   0)                  1.1028         0.343509   
      5. B(F   5,C   0)                  2.5185         0.008231 C 
      6. B(F   5,H   4)                  1.7495         0.026573   
      7. A(Br  1,C   0,H   2)          103.3280         0.301973   
      8. A(Br  1,C   0,H   3)          103.3372         0.301972   
      9. A(H   2,C   0,H   4)          111.6194         0.289282   
     10. A(H   3,C   0,H   4)          111.6186         0.289281   
     11. A(H   2,C   0,H   3)          112.1666         0.292024   
     12. A(Br  1,C   0,H   4)          114.2672         0.299095   
     13. A(C   0,H   4,F   5)          122.3698         0.197541   
     14. D(F   5,H   4,C   0,H   3)     63.2089         0.118142   
     15. D(F   5,H   4,C   0,Br  1)   -179.9927         0.118142   
     16. D(F   5,H   4,C   0,H   2)    -63.2057         0.118142   
    -----------------------------------------------------------------

Number of atoms                         .... 6
Number of degrees of freedom            .... 16

         *************************************************************
         *                GEOMETRY OPTIMIZATION CYCLE   1            *
         *************************************************************
---------------------------------
CARTESIAN COORDINATES (ANGSTROEM)
---------------------------------
  C     -1.840571   -0.579773   -0.041784
  Br     0.195051   -0.163049    0.083173
  H     -1.957651   -1.450572    0.597304
  H     -1.983286   -0.819727   -1.091784
  H     -2.493466    0.249569    0.277863
  F     -4.238677    0.128422    0.259138

----------------------------
CARTESIAN COORDINATES (A.U.)
----------------------------
  NO LB      ZA    FRAG     MASS         X           Y           Z
   0 C     6.0000    0    12.011   -3.478174   -1.095613   -0.078959
   1 Br   35.0000    0    79.900    0.368593   -0.308118    0.157173
   2 H     1.0000    0     1.008   -3.699424   -2.741183    1.128741
   3 H     1.0000    0     1.008   -3.747868   -1.549060   -2.063173
   4 H     1.0000    0     1.008   -4.711968    0.471617    0.525086
   5 F     9.0000    0    18.998   -8.009939    0.242683    0.489699

--------------------------------
INTERNAL COORDINATES (ANGSTROEM)
--------------------------------
 C      0   0   0     0.000000000000     0.00000000     0.00000000
 Br     1   0   0     2.081592761035     0.00000000     0.00000000
 H      1   2   0     1.086476301290   103.32799943     0.00000000
 H      1   2   3     1.086483526927   103.33720295   242.95711304
 H      1   2   3     1.102839739690   114.26717208   121.47591058
 F      5   1   2     1.749511037977   122.36983127   180.00725554

---------------------------
INTERNAL COORDINATES (A.U.)
---------------------------
 C      0   0   0     0.000000000000     0.00000000     0.00000000
 Br     1   0   0     3.933640240708     0.00000000     0.00000000
 H      1   2   0     2.053142660434   103.32799943     0.00000000
 H      1   2   3     2.053156314910   103.33720295   242.95711304
 H      1   2   3     2.084065077620   114.26717208   121.47591058
 F      5   1   2     3.306096730049   122.36983127   180.00725554

---------------------
BASIS SET INFORMATION
---------------------
There are 4 groups of distinct atoms

 Group   1 Type C   : 11s6p1d contracted to 5s3p1d pattern {62111/411/1}
 Group   2 Type Br  : 17s13p7d contracted to 6s5p3d pattern {842111/64111/511}
 Group   3 Type H   : 4s1p contracted to 2s1p pattern {31/1}
 Group   4 Type F   : 11s6p2d contracted to 5s3p2d pattern {62111/411/11}

Atom   0C    basis set group =>   1
Atom   1Br   basis set group =>   2
Atom   2H    basis set group =>   3
Atom   3H    basis set group =>   3
Atom   4H    basis set group =>   3
Atom   5F    basis set group =>   4
---------------------------------
AUXILIARY/J BASIS SET INFORMATION
---------------------------------
There are 4 groups of distinct atoms

 Group   1 Type C   : 8s3p3d contracted to 6s3p3d pattern {311111/111/111}
 Group   2 Type Br  : 19s5p5d3f1g contracted to 8s4p3d2f1g pattern {121111111/2111/311/21/1}
 Group   3 Type H   : 5s2p1d contracted to 3s1p1d pattern {311/2/1}
 Group   4 Type F   : 8s3p4d contracted to 6s3p4d pattern {311111/111/1111}

Atom   0C    basis set group =>   1
Atom   1Br   basis set group =>   2
Atom   2H    basis set group =>   3
Atom   3H    basis set group =>   3
Atom   4H    basis set group =>   3
Atom   5F    basis set group =>   4


           ************************************************************
           *        Program running with 8 parallel MPI-processes     *
           *              working on a common directory               *
           ************************************************************
------------------------------------------------------------------------------
                           ORCA GTO INTEGRAL CALCULATION
                           -- RI-GTO INTEGRALS CHOSEN --
------------------------------------------------------------------------------
------------------------------------------------------------------------------
                   ___                                                        
                  /   \      - P O W E R E D   B Y -                         
                 /     \                                                     
                 |  |  |   _    _      __       _____    __    __             
                 |  |  |  | |  | |    /  \     |  _  \  |  |  /  |          
                  \  \/   | |  | |   /    \    | | | |  |  | /  /          
                 / \  \   | |__| |  /  /\  \   | |_| |  |  |/  /          
                |  |  |   |  __  | /  /__\  \  |    /   |      \           
                |  |  |   | |  | | |   __   |  |    \   |  |\   \          
                \     /   | |  | | |  |  |  |  | |\  \  |  | \   \       
                 \___/    |_|  |_| |__|  |__|  |_| \__\ |__|  \__/        
                                                                              
                      - O R C A' S   B I G   F R I E N D -                    
                                      &                                       
                       - I N T E G R A L  F E E D E R -                       
                                                                              
 v1 FN, 2020, v2 2021                                                         
------------------------------------------------------------------------------


Reading SHARK input file /home/wontleave/calc/autoopt/methylBr_F/run.copt.r2scan-3c.SHARKINP.tmp ... ok
----------------------
SHARK INTEGRAL PACKAGE
----------------------

Number of atoms                             ...      6
Number of basis functions                   ...     94
Number of shells                            ...     42
Maximum angular momentum                    ...      2
Integral batch strategy                     ... SHARK/LIBINT Hybrid
RI-J (if used) integral strategy            ... SPLIT-RIJ (Revised 2003 algorithm where possible)
Printlevel                                  ...      1
Contraction scheme used                     ... SEGMENTED contraction
Coulomb Range Separation                    ... NOT USED
Exchange Range Separation                   ... NOT USED
Finite Nucleus Model                        ... NOT USED
Auxiliary Coulomb fitting basis             ... AVAILABLE
   # of basis functions in Aux-J            ...    156
   # of shells in Aux-J                     ...     58
   Maximum angular momentum in Aux-J        ...      4
Auxiliary J/K fitting basis                 ... NOT available
Auxiliary Correlation fitting basis         ... NOT available
Auxiliary 'external' fitting basis          ... NOT available
Integral threshold                          ...     1.000000e-12
Primitive cut-off                           ...     1.000000e-14
Primitive pair pre-selection threshold      ...     1.000000e-14

Calculating pre-screening integrals         ... done (  0.0 sec) Dimension = 42
Organizing shell pair data                  ... done (  0.0 sec)
Shell pair information
Total number of shell pairs                 ...       903
Shell pairs after pre-screening             ...       835
Total number of primitive shell pairs       ...      4124
Primitive shell pairs kept                  ...      2953
          la=0 lb=0:    226 shell pairs
          la=1 lb=0:    289 shell pairs
          la=1 lb=1:    102 shell pairs
          la=2 lb=0:    120 shell pairs
          la=2 lb=1:     79 shell pairs
          la=2 lb=2:     19 shell pairs

Calculating one electron integrals          ... done (  0.0 sec)
Calculating RI/J V-Matrix + Cholesky decomp.... done (  0.0 sec)
Calculating Nuclear repulsion               ... done (  0.0 sec) ENN=    139.207862655902 Eh

SHARK setup successfully completed in   0.1 seconds

Maximum memory used throughout the entire GTOINT-calculation: 14.0 MB


           ************************************************************
           *        Program running with 8 parallel MPI-processes     *
           *              working on a common directory               *
           ************************************************************
-------------------------------------------------------------------------------
                                 ORCA SCF
-------------------------------------------------------------------------------

------------
SCF SETTINGS
------------
Hamiltonian:
 Density Functional     Method          .... DFT(GTOs)
  Functional kind                       .... Exchange
  Functional name                       .... Re-regularized SCAN exchange by Furness et al
  Functional family                     .... MGGA
  Functional refs                              
    [ 0] J. W. Furness, A. D. Kaplan, J. Ning, J. P. Perdew, and J. Sun, J. Phys. Chem. Lett. 11, 8208 (2020)
    [ 1] J. W. Furness, A. D. Kaplan, J. Ning, J. P. Perdew, and J. Sun, J. Phys. Chem. Lett. 11, 9248 (2020)
  Functional external parameters         .... 8
 Parameter  0 :         c1 parameter
 Parameter  1 :         c2 parameter
 Parameter  2 :          d parameter
 Parameter  3 :         k1 parameter
 Parameter  4 :       taur parameter
 Parameter  5 :     alphar parameter
 Parameter  6 :        eta parameter
 Parameter  7 :        dp2 parameter
  Functional kind                       .... Correlation
  Functional name                       .... Re-regularized SCAN correlation by Furness et al
  Functional family                     .... MGGA
  Functional refs                              
    [ 0] J. W. Furness, A. D. Kaplan, J. Ning, J. P. Perdew, and J. Sun, J. Phys. Chem. Lett. 11, 8208 (2020)
    [ 1] J. W. Furness, A. D. Kaplan, J. Ning, J. P. Perdew, and J. Sun, J. Phys. Chem. Lett. 11, 9248 (2020)
  Functional external parameters         .... 0
 Gradients option       PostSCFGGA      .... off
   Density functional embedding theory  .... OFF
 RI-approximation to the Coulomb term is turned on
   Number of AuxJ basis functions       .... 156


General Settings:
 Integral files         IntName         .... /home/wontleave/calc/autoopt/methylBr_F/run.copt.r2scan-3c
 Hartree-Fock type      HFTyp           .... RHF
 Total Charge           Charge          ....   -1
 Multiplicity           Mult            ....    1
 Number of Electrons    NEL             ....   54
 Basis Dimension        Dim             ....   94
 Nuclear Repulsion      ENuc            ....    139.2078626559 Eh

Convergence Acceleration:
 DIIS                   CNVDIIS         .... on
   Start iteration      DIISMaxIt       ....    12
   Startup error        DIISStart       ....  0.200000
   # of expansion vecs  DIISMaxEq       ....     5
   Bias factor          DIISBfac        ....   1.050
   Max. coefficient     DIISMaxC        ....  10.000
 Trust-Rad. Augm. Hess. CNVTRAH         .... auto
   Auto Start mean grad. ratio tolernc. ....  1.125000
   Auto Start start iteration           ....    20
   Auto Start num. interpolation iter.  ....    10
   Max. Number of Micro iterations      ....    16
   Max. Number of Macro iterations      .... Maxiter - #DIIS iter
   Number of Davidson start vectors     ....     2
   Converg. threshold I  (grad. norm)   ....   2.000e-06
   Converg. threshold II (energy diff.) ....   1.000e-09
   Grad. Scal. Fac. for Micro threshold ....   0.100
   Minimum threshold for Micro iter.    ....   0.010
   NR start threshold (gradient norm)   ....   0.001
   Initial trust radius                 ....   0.400
   Minimum AH scaling param. (alpha)    ....   1.000
   Maximum AH scaling param. (alpha)    .... 1000.000
   Orbital update algorithm             .... Taylor
   White noise on init. David. guess    .... on
   Maximum white noise                  ....   0.010
   Quad. conv. algorithm                .... NR
   COSX micro iterations for RIJONX calc.... off
 SOSCF                  CNVSOSCF        .... on
   Start iteration      SOSCFMaxIt      ....   150
   Startup grad/error   SOSCFStart      ....  0.003300
 Level Shifting         CNVShift        .... on
   Level shift para.    LevelShift      ....    0.2500
   Turn off err/grad.   ShiftErr        ....    0.0010
 Zerner damping         CNVZerner       .... off
 Static damping         CNVDamp         .... on
   Fraction old density DampFac         ....    0.7000
   Max. Damping (<1)    DampMax         ....    0.9800
   Min. Damping (>=0)   DampMin         ....    0.0000
   Turn off err/grad.   DampErr         ....    0.1000
 Fernandez-Rico         CNVRico         .... off

SCF Procedure:
 Maximum # iterations   MaxIter         ....   125
 SCF integral mode      SCFMode         .... Direct
   Integral package                     .... SHARK and LIBINT hybrid scheme
 Reset frequency        DirectResetFreq ....    20
 Integral Threshold     Thresh          ....  1.000e-12 Eh
 Primitive CutOff       TCut            ....  1.000e-14 Eh

Convergence Tolerance:
 Convergence Check Mode ConvCheckMode   .... Total+1el-Energy
 Convergence forced     ConvForced      .... 0
 Energy Change          TolE            ....  1.000e-09 Eh
 1-El. energy change                    ....  1.000e-06 Eh
 Orbital Gradient       TolG            ....  2.000e-06
 Orbital Rotation angle TolX            ....  2.000e-06
 DIIS Error             TolErr          ....  1.000e-08


Diagonalization of the overlap matrix:
Smallest eigenvalue                        ... 6.655e-03
Time for diagonalization                   ...    0.001 sec
Threshold for overlap eigenvalues          ... 1.000e-08
Number of eigenvalues below threshold      ... 0
Time for construction of square roots      ...    0.001 sec
Total time needed                          ...    0.002 sec

Time for model grid setup =    0.031 sec

------------------------------
INITIAL GUESS: MODEL POTENTIAL
------------------------------
Loading Hartree-Fock densities                     ... done
Calculating cut-offs                               ... done
Initializing the effective Hamiltonian             ... done
Setting up the integral package (SHARK)            ... done
Starting the Coulomb interaction                   ... done (   0.0 sec)
Reading the grid                                   ... done
Mapping shells                                     ... done
Starting the XC term evaluation                    ... done (   0.0 sec)
  promolecular density results
     # of electrons  =     52.998296688
     EX              =   -105.161470828
     EC              =     -2.290235266
     EX+EC           =   -107.451706094
Transforming the Hamiltonian                       ... done (   0.0 sec)
Diagonalizing the Hamiltonian                      ... done (   0.0 sec)
Back transforming the eigenvectors                 ... done (   0.0 sec)
Now organizing SCF variables                       ... done
                      ------------------
                      INITIAL GUESS DONE (   0.0 sec)
                      ------------------
-------------------
DFT GRID GENERATION
-------------------

General Integration Accuracy     IntAcc      ... 4.388
Radial Grid Type                 RadialGrid  ... OptM3 with GC (2021)
Angular Grid (max. ang.)         AngularGrid ... 4 (Lebedev-302)
Angular grid pruning method      GridPruning ... 4 (adaptive)
Weight generation scheme         WeightScheme... Becke
Basis function cutoff            BFCut       ... 1.0000e-12
Integration weight cutoff        WCut        ... 1.0000e-14
Angular grids for H and He will be reduced by one unit
Partially contracted basis set               ... off
Rotationally invariant grid construction     ... off

Total number of grid points                  ...    33381
Total number of batches                      ...      526
Average number of points per batch           ...       63
Average number of grid points per atom       ...     5564
Time for grid setup =    0.154 sec

--------------
SCF ITERATIONS
--------------
ITER       Energy         Delta-E        Max-DP      RMS-DP      [F,P]     Damp
               ***  Starting incremental Fock matrix formation  ***
  0  -2713.7214437840   0.000000000000 0.07483977  0.00356327  0.3856377 0.7000
  1  -2713.8147553871  -0.093311603131 0.04028424  0.00239151  0.1056652 0.7000
                               ***Turning on DIIS***
  2  -2713.8395177146  -0.024762327449 0.08991695  0.00368303  0.0319615 0.0000
  3  -2713.8906551398  -0.051137425245 0.02719446  0.00177271  0.0623265 0.0000
  4  -2713.9001561275  -0.009500987634 0.01371619  0.00066020  0.0432895 0.0000
  5  -2713.9024061875  -0.002250060040 0.01233855  0.00034259  0.0057753 0.0000
                      *** Initiating the SOSCF procedure ***
                           *** Shutting down DIIS ***
                      *** Re-Reading the Fockian *** 
                      *** Removing any level shift *** 
ITER      Energy       Delta-E        Grad      Rot      Max-DP    RMS-DP
  6  -2713.90260114  -0.0001949476  0.001004  0.001004  0.003007  0.000125
               *** Restarting incremental Fock matrix formation ***
  7  -2713.90263284  -0.0000317015  0.000696  0.005966  0.004313  0.000182
  8  -2713.90263551  -0.0000026772  0.001011  0.001172  0.001191  0.000065
  9  -2713.90263977  -0.0000042592  0.000764  0.001032  0.001292  0.000059
 10  -2713.90264263  -0.0000028537  0.000341  0.000650  0.000439  0.000020
 11  -2713.90264332  -0.0000006982  0.000239  0.000403  0.000341  0.000016
 12  -2713.90264358  -0.0000002545  0.000156  0.000162  0.000286  0.000008
 13  -2713.90264370  -0.0000001186  0.000056  0.000075  0.000082  0.000003
 14  -2713.90264371  -0.0000000128  0.000019  0.000056  0.000033  0.000002
 15  -2713.90264371  -0.0000000034  0.000007  0.000007  0.000011  0.000000
 16  -2713.90264371  -0.0000000003  0.000002  0.000003  0.000003  0.000000
                  ***Gradient check signals convergence***
              ***Rediagonalizing the Fockian in SOSCF/NRSCF***

               *****************************************************
               *                     SUCCESS                       *
               *           SCF CONVERGED AFTER  17 CYCLES          *
               *****************************************************


----------------
TOTAL SCF ENERGY
----------------

Total Energy       :        -2713.90264371 Eh          -73849.04535 eV

Components:
Nuclear Repulsion  :          139.20786266 Eh            3788.03852 eV
Electronic Energy  :        -2853.11050637 Eh          -77637.08387 eV
One Electron Energy:        -4064.00206667 Eh         -110587.11837 eV
Two Electron Energy:         1210.89156030 Eh           32950.03450 eV

Virial components:
Potential Energy   :        -5423.88301758 Eh         -147591.36031 eV
Kinetic Energy     :         2709.98037386 Eh           73742.31496 eV
Virial Ratio       :            2.00144734


DFT components:
N(Alpha)           :       26.999993511843 electrons
N(Beta)            :       26.999993511843 electrons
N(Total)           :       53.999987023686 electrons
E(X)               :     -106.134579280638 Eh       
E(C)               :       -2.324622737687 Eh       
E(XC)              :     -108.459202018325 Eh       
DFET-embed. en.    :        0.000000000000 Eh       

---------------
SCF CONVERGENCE
---------------

  Last Energy change         ...   -2.4102e-11  Tolerance :   1.0000e-09
  Last MAX-Density change    ...    6.5410e-07  Tolerance :   1.0000e-08
  Last RMS-Density change    ...    2.8230e-08  Tolerance :   1.0000e-09
  Last Orbital Gradient      ...    2.4332e-07  Tolerance :   2.0000e-06
  Last Orbital Rotation      ...    9.5362e-07  Tolerance :   2.0000e-06

             **** THE GBW FILE WAS UPDATED (/home/wontleave/calc/autoopt/methylBr_F/run.copt.r2scan-3c.gbw) ****
             **** DENSITY /home/wontleave/calc/autoopt/methylBr_F/run.copt.r2scan-3c.scfp WAS UPDATED ****
             **** ENERGY FILE WAS UPDATED (/home/wontleave/calc/autoopt/methylBr_F/run.copt.r2scan-3c.en.tmp) ****
             **** THE GBW FILE WAS UPDATED (/home/wontleave/calc/autoopt/methylBr_F/run.copt.r2scan-3c.gbw) ****
             **** DENSITY /home/wontleave/calc/autoopt/methylBr_F/run.copt.r2scan-3c.scfp WAS UPDATED ****
----------------
ORBITAL ENERGIES
----------------

  NO   OCC          E(Eh)            E(eV) 
   0   2.0000    -482.052223    -13117.3079 
   1   2.0000     -62.124375     -1690.4902 
   2   2.0000     -55.905299     -1521.2605 
   3   2.0000     -55.901975     -1521.1701 
   4   2.0000     -55.901931     -1521.1689 
   5   2.0000     -24.080837      -655.2729 
   6   2.0000      -9.902927      -269.4724 
   7   2.0000      -8.455908      -230.0970 
   8   2.0000      -6.261488      -170.3838 
   9   2.0000      -6.250668      -170.0893 
  10   2.0000      -6.250640      -170.0886 
  11   2.0000      -2.359419       -64.2031 
  12   2.0000      -2.356897       -64.1344 
  13   2.0000      -2.356847       -64.1331 
  14   2.0000      -2.348666       -63.9105 
  15   2.0000      -2.348662       -63.9103 
  16   2.0000      -0.712812       -19.3966 
  17   2.0000      -0.579835       -15.7781 
  18   2.0000      -0.462341       -12.5809 
  19   2.0000      -0.232124        -6.3164 
  20   2.0000      -0.214276        -5.8307 
  21   2.0000      -0.180138        -4.9018 
  22   2.0000      -0.099184        -2.6989 
  23   2.0000      -0.099117        -2.6971 
  24   2.0000       0.003064         0.0834 
  25   2.0000       0.005565         0.1514 
  26   2.0000       0.006591         0.1794 
  27   0.0000       0.122503         3.3335 
  28   0.0000       0.267828         7.2880 
  29   0.0000       0.336204         9.1486 
  30   0.0000       0.338083         9.1997 
  31   0.0000       0.365790         9.9537 
  32   0.0000       0.370222        10.0742 
  33   0.0000       0.386663        10.5216 
  34   0.0000       0.406164        11.0523 
  35   0.0000       0.429897        11.6981 
  36   0.0000       0.448454        12.2031 
  37   0.0000       0.524550        14.2737 
  38   0.0000       0.620905        16.8957 
  39   0.0000       0.624601        16.9963 
  40   0.0000       0.654487        17.8095 
  41   0.0000       0.676205        18.4005 
  42   0.0000       0.746529        20.3141 
  43   0.0000       0.811412        22.0796 
  44   0.0000       0.858310        23.3558 
  45   0.0000       0.866932        23.5904 
  46   0.0000       0.941124        25.6093 
  47   0.0000       1.016499        27.6603 
  48   0.0000       1.040016        28.3003 
  49   0.0000       1.041859        28.3504 
  50   0.0000       1.056052        28.7366 
  51   0.0000       1.107684        30.1416 
  52   0.0000       1.172478        31.9048 
  53   0.0000       1.189586        32.3703 
  54   0.0000       1.262754        34.3613 
  55   0.0000       1.386315        37.7235 
  56   0.0000       1.466048        39.8932 
  57   0.0000       1.472849        40.0783 
  58   0.0000       1.551006        42.2050 
  59   0.0000       1.575117        42.8611 
  60   0.0000       1.681920        45.7674 
  61   0.0000       1.763729        47.9935 
  62   0.0000       1.790329        48.7173 
  63   0.0000       1.850067        50.3429 
  64   0.0000       1.890959        51.4556 
  65   0.0000       2.047942        55.7273 
  66   0.0000       2.327855        63.3442 
  67   0.0000       2.370335        64.5001 
  68   0.0000       2.445896        66.5562 
  69   0.0000       2.462060        66.9961 
  70   0.0000       2.611704        71.0681 
  71   0.0000       2.740232        74.5655 
  72   0.0000       2.843447        77.3741 
  73   0.0000       2.848312        77.5065 
  74   0.0000       2.919183        79.4350 
  75   0.0000       2.940445        80.0136 
  76   0.0000       2.964107        80.6574 
  77   0.0000       3.009487        81.8923 
  78   0.0000       3.174770        86.3899 
  79   0.0000       3.363146        91.5159 
  80   0.0000       3.539327        96.3100 
  81   0.0000       3.549610        96.5898 
  82   0.0000       3.589939        97.6872 
  83   0.0000       3.641384        99.0871 
  84   0.0000       3.673884        99.9715 
  85   0.0000       3.723490       101.3213 
  86   0.0000       3.724487       101.3484 
  87   0.0000       3.763204       102.4020 
  88   0.0000       3.808263       103.6281 
  89   0.0000       3.835116       104.3588 
  90   0.0000       4.222362       114.8963 
  91   0.0000       7.448903       202.6950 
  92   0.0000      21.948816       597.2576 
  93   0.0000      56.901511      1548.3688 

                    ********************************
                    * MULLIKEN POPULATION ANALYSIS *
                    ********************************

-----------------------
MULLIKEN ATOMIC CHARGES
-----------------------
   0 C :   -0.338206
   1 Br:   -0.409485
   2 H :    0.141835
   3 H :    0.141845
   4 H :    0.269696
   5 F :   -0.805685
Sum of atomic charges:   -1.0000000

--------------------------------
MULLIKEN REDUCED ORBITAL CHARGES
--------------------------------
  0 C s       :     3.324061  s :     3.324061
      pz      :     1.091115  p :     2.991928
      px      :     0.712204
      py      :     1.188608
      dz2     :     0.005724  d :     0.022217
      dxz     :     0.001998
      dyz     :     0.004602
      dx2y2   :     0.006054
      dxy     :     0.003839
  1 Brs       :     7.959917  s :     7.959917
      pz      :     5.994649  p :    17.416805
      px      :     5.453038
      py      :     5.969118
      dz2     :     2.004480  d :    10.032762
      dxz     :     2.006911
      dyz     :     2.000510
      dx2y2   :     2.012976
      dxy     :     2.007884
  2 H s       :     0.839486  s :     0.839486
      pz      :     0.006549  p :     0.018680
      px      :     0.003345
      py      :     0.008786
  3 H s       :     0.839477  s :     0.839477
      pz      :     0.010968  p :     0.018678
      px      :     0.003420
      py      :     0.004290
  4 H s       :     0.706216  s :     0.706216
      pz      :     0.003747  p :     0.024088
      px      :     0.012936
      py      :     0.007405
  5 F s       :     3.989503  s :     3.989503
      pz      :     1.981793  p :     5.816662
      px      :     1.877637
      py      :     1.957233
      dz2     :    -0.000074  d :    -0.000480
      dxz     :    -0.000007
      dyz     :    -0.000034
      dx2y2   :    -0.000263
      dxy     :    -0.000101


                     *******************************
                     * LOEWDIN POPULATION ANALYSIS *
                     *******************************

----------------------
LOEWDIN ATOMIC CHARGES
----------------------
   0 C :   -0.486548
   1 Br:   -0.180449
   2 H :    0.143145
   3 H :    0.143148
   4 H :    0.211702
   5 F :   -0.830999

-------------------------------
LOEWDIN REDUCED ORBITAL CHARGES
-------------------------------
  0 C s       :     3.129064  s :     3.129064
      pz      :     1.189632  p :     3.307185
      px      :     0.882997
      py      :     1.234556
      dz2     :     0.013855  d :     0.050298
      dxz     :     0.003920
      dyz     :     0.011434
      dx2y2   :     0.012755
      dxy     :     0.008334
  1 Brs       :     7.778893  s :     7.778893
      pz      :     5.974197  p :    17.355852
      px      :     5.429612
      py      :     5.952043
      dz2     :     2.007037  d :    10.045704
      dxz     :     2.007539
      dyz     :     2.000592
      dx2y2   :     2.020501
      dxy     :     2.010035
  2 H s       :     0.811564  s :     0.811564
      pz      :     0.015827  p :     0.045291
      px      :     0.006743
      py      :     0.022721
  3 H s       :     0.811562  s :     0.811562
      pz      :     0.028063  p :     0.045289
      px      :     0.006942
      py      :     0.010284
  4 H s       :     0.715821  s :     0.715821
      pz      :     0.009329  p :     0.072477
      px      :     0.040972
      py      :     0.022176
  5 F s       :     3.971983  s :     3.971983
      pz      :     1.985874  p :     5.836280
      px      :     1.884009
      py      :     1.966396
      dz2     :     0.005076  d :     0.022736
      dxz     :     0.001027
      dyz     :     0.000137
      dx2y2   :     0.014922
      dxy     :     0.001575


                      *****************************
                      * MAYER POPULATION ANALYSIS *
                      *****************************

  NA   - Mulliken gross atomic population
  ZA   - Total nuclear charge
  QA   - Mulliken gross atomic charge
  VA   - Mayer's total valence
  BVA  - Mayer's bonded valence
  FA   - Mayer's free valence

  ATOM       NA         ZA         QA         VA         BVA        FA
  0 C      6.3382     6.0000    -0.3382     3.7362     3.7362    -0.0000
  1 Br    35.4095    35.0000    -0.4095     0.8236     0.8236    -0.0000
  2 H      0.8582     1.0000     0.1418     0.9600     0.9600    -0.0000
  3 H      0.8582     1.0000     0.1418     0.9600     0.9600     0.0000
  4 H      0.7303     1.0000     0.2697     0.9480     0.9480    -0.0000
  5 F      9.8057     9.0000    -0.8057     0.3023     0.3023    -0.0000

  Mayer bond orders larger than 0.100000
B(  0-C ,  1-Br) :   0.7546 B(  0-C ,  2-H ) :   0.9670 B(  0-C ,  3-H ) :   0.9670 
B(  0-C ,  4-H ) :   0.8726 B(  0-C ,  5-F ) :   0.1749 

-------
TIMINGS
-------

Total SCF time: 0 days 0 hours 0 min 1 sec 

Total time                  ....       1.277 sec
Sum of individual times     ....       1.203 sec  ( 94.2%)

Fock matrix formation       ....       0.948 sec  ( 74.3%)
  Split-RI-J                ....       0.149 sec  ( 15.7% of F)
  XC integration            ....       0.780 sec  ( 82.3% of F)
    Basis function eval.    ....       0.144 sec  ( 18.5% of XC)
    Density eval.           ....       0.184 sec  ( 23.6% of XC)
    XC-Functional eval.     ....       0.232 sec  ( 29.8% of XC)
    XC-Potential eval.      ....       0.159 sec  ( 20.4% of XC)
Diagonalization             ....       0.015 sec  (  1.2%)
Density matrix formation    ....       0.002 sec  (  0.2%)
Population analysis         ....       0.002 sec  (  0.2%)
Initial guess               ....       0.014 sec  (  1.1%)
Orbital Transformation      ....       0.000 sec  (  0.0%)
Orbital Orthonormalization  ....       0.000 sec  (  0.0%)
DIIS solution               ....       0.016 sec  (  1.3%)
SOSCF solution              ....       0.021 sec  (  1.6%)
Grid generation             ....       0.184 sec  ( 14.4%)

Maximum memory used throughout the entire SCF-calculation: 12.7 MB


-------------------------------------------------------------------------------
                          DFT DISPERSION CORRECTION                            
                                                                               
                                 DFTD4 V2.5                                    
-------------------------------------------------------------------------------
The R2SCAN3C composite method is recognized
Using three-body term ABC
Active option DFTDOPT                   ...         5   

Starting D4
-------------------------   ----------------
Dispersion correction           -0.000852459
-------------------------   ----------------

------------------   -----------------
gCP correction             0.004146186
------------------   -----------------

-------------------------   --------------------
FINAL SINGLE POINT ENERGY     -2713.899349987330
-------------------------   --------------------



           ************************************************************
           *        Program running with 8 parallel MPI-processes     *
           *              working on a common directory               *
           ************************************************************
------------------------------------------------------------------------------
                         ORCA SCF GRADIENT CALCULATION
------------------------------------------------------------------------------

Gradient of the Kohn-Sham DFT energy:
Kohn-Sham wavefunction type      ... RKS
Hartree-Fock exchange scaling    ...    0.000
Number of operators              ...    1
Number of atoms                  ...    6
Basis set dimensions             ...   94
Integral neglect threshold       ... 1.0e-12
Integral primitive cutoff        ... 1.0e-14
SHARK Integral package           ... ON

Nuc. rep. gradient       (SHARK) ... done (  0.0 sec)
HCore & Overlap gradient (SHARK) ... done (  0.0 sec)
RI-J gradient            (SHARK) ... done (  0.1 sec)
Exchange-correlation gradient    ... done
Dispersion correction            ... Starting D4
Starting D4


------------------- 
Dispersion Gradient 
------------------- 
   1  :    0.000000092   -0.000004431   -0.000001657
   2  :    0.000050945    0.000001985   -0.000000028
   3  :    0.000000645   -0.000003294    0.000001801
   4  :    0.000000563   -0.000001301   -0.000003537
   5  :   -0.000009634    0.000002575    0.000001108
   6  :   -0.000035860    0.000006560    0.000002993

  |G| =    0.000129009

Starting D4
Starting D4
Starting D4
Starting D4
Starting D4
Starting D4
done
gCP correction                   ... done

------------------
CARTESIAN GRADIENT
------------------

   1   C   :    0.000001685    0.000000938    0.000000210
   2   Br  :    0.000000128    0.000008936   -0.000005184
   3   H   :    0.000006010    0.000002805    0.000003571
   4   H   :    0.000000436   -0.000003364    0.000001343
   5   H   :   -0.000000962   -0.000000342   -0.000001525
   6   F   :   -0.000000547   -0.000006879    0.000002265

Difference to translation invariance:
           :    0.0000067505    0.0000020933    0.0000006799

Difference to rotation invariance:
           :   -0.0000185625    0.0000368364    0.0000785994

Norm of the cartesian gradient     ...    0.0000153843
RMS gradient                       ...    0.0000036261
MAX gradient                       ...    0.0000089358

-------
TIMINGS
-------

Total SCF gradient time            ...        0.340 sec

One electron gradient       ....       0.005 sec  (  1.4%)
RI-J Coulomb gradient       ....       0.147 sec  ( 43.3%)
XC gradient                 ....       0.099 sec  ( 29.2%)

Maximum memory used throughout the entire SCFGRAD-calculation: 26.3 MB
------------------------------------------------------------------------------
                         ORCA GEOMETRY RELAXATION STEP
------------------------------------------------------------------------------

Reading the OPT-File                    .... done
Getting information on internals        .... done
Copying old internal coords+grads       .... done
Making the new internal coordinates     .... (new redundants).... done
Validating the new internal coordinates .... (new redundants).... done
Calculating the B-matrix                .... done
Calculating the G,G- and P matrices     .... done
Transforming gradient to internals      .... done
Projecting the internal gradient        .... done
Number of atoms                         ....   6
Number of internal coordinates          ....  16
Current Energy                          .... -2713.899349987 Eh
Current gradient norm                   ....     0.000015384 Eh/bohr
Maximum allowed component of the step   ....  0.300
Current trust radius                    ....  0.300
Evaluating the initial hessian          ....  (Almloef) done
Projecting the Hessian                  .... done
Forming the augmented Hessian           .... done
Diagonalizing the augmented Hessian     .... done
Last element of RFO vector              ....  1.000000000
Lowest eigenvalues of augmented Hessian:
 -0.000000000  0.082314636  0.118142104  0.165516148  0.219282264
Length of the computed step             ....  0.000000731
The final length of the internal step   ....  0.000000731
Converting the step to cartesian space:
 Initial RMS(Int)=    0.0000001827
Transforming coordinates:
 Iter   0:  RMS(Cart)=    0.0000001878 RMS(Int)=    0.0000001827
 Iter   1:  RMS(Cart)=    0.0000000000 RMS(Int)=    0.0000000000
Imposing constraints:
 Iter   0:  RMS(Cart)=    0.0000000005 RMS(Int)=    0.0000000006
CONVERGED
done
Storing new coordinates                 .... done

                                .--------------------.
          ----------------------|Geometry convergence|-------------------------
          Item                value                   Tolerance       Converged
          ---------------------------------------------------------------------
          RMS gradient        0.0000000277            0.0000080000      YES
          MAX gradient        0.0000001051            0.0000300000      YES
          RMS step            0.0000001827            0.0001000000      YES
          MAX step            0.0000006351            0.0002000000      YES
          ........................................................
          Max(Bonds)      0.0000      Max(Angles)    0.00
          Max(Dihed)        0.00      Max(Improp)    0.00
          ---------------------------------------------------------------------

                    ***********************HURRAY********************
                    ***        THE OPTIMIZATION HAS CONVERGED     ***
                    *************************************************


    ---------------------------------------------------------------------------
                         Redundant Internal Coordinates

                          --- Optimized Parameters ---  
                            (Angstroem and degrees)

        Definition                    OldVal   dE/dq     Step     FinalVal
    ----------------------------------------------------------------------------
     1. B(Br  1,C   0)                2.0816 -0.000000  0.0000    2.0816   
     2. B(H   2,C   0)                1.0865 -0.000000  0.0000    1.0865   
     3. B(H   3,C   0)                1.0865  0.000000 -0.0000    1.0865   
     4. B(H   4,C   0)                1.1028  0.000000 -0.0000    1.1028   
     5. B(F   5,C   0)                2.5185  0.000000 -0.0000    2.5185 C 
     6. B(F   5,H   4)                1.7495 -0.000000  0.0000    1.7495   
     7. A(Br  1,C   0,H   2)          103.33 -0.000000    0.00    103.33   
     8. A(Br  1,C   0,H   3)          103.34 -0.000000    0.00    103.34   
     9. A(H   2,C   0,H   4)          111.62  0.000000   -0.00    111.62   
    10. A(H   3,C   0,H   4)          111.62  0.000000   -0.00    111.62   
    11. A(H   2,C   0,H   3)          112.17  0.000000   -0.00    112.17   
    12. A(Br  1,C   0,H   4)          114.27  0.000000    0.00    114.27   
    13. A(C   0,H   4,F   5)          122.37  0.000000   -0.00    122.37   
    14. D(F   5,H   4,C   0,H   3)     63.21  0.000000   -0.00     63.21   
    15. D(F   5,H   4,C   0,Br  1)   -179.99  0.000000   -0.00   -179.99   
    16. D(F   5,H   4,C   0,H   2)    -63.21 -0.000000    0.00    -63.21   
    ----------------------------------------------------------------------------
                 *******************************************************
                 *** FINAL ENERGY EVALUATION AT THE STATIONARY POINT ***
                 ***               (AFTER    1 CYCLES)               ***
                 *******************************************************
---------------------------------
CARTESIAN COORDINATES (ANGSTROEM)
---------------------------------
  C     -1.840571   -0.579773   -0.041784
  Br     0.195051   -0.163049    0.083173
  H     -1.957651   -1.450572    0.597304
  H     -1.983286   -0.819727   -1.091784
  H     -2.493466    0.249569    0.277863
  F     -4.238677    0.128422    0.259138

----------------------------
CARTESIAN COORDINATES (A.U.)
----------------------------
  NO LB      ZA    FRAG     MASS         X           Y           Z
   0 C     6.0000    0    12.011   -3.478174   -1.095613   -0.078959
   1 Br   35.0000    0    79.900    0.368594   -0.308118    0.157173
   2 H     1.0000    0     1.008   -3.699424   -2.741183    1.128741
   3 H     1.0000    0     1.008   -3.747868   -1.549060   -2.063173
   4 H     1.0000    0     1.008   -4.711968    0.471617    0.525086
   5 F     9.0000    0    18.998   -8.009939    0.242682    0.489699

--------------------------------
INTERNAL COORDINATES (ANGSTROEM)
--------------------------------
 C      0   0   0     0.000000000000     0.00000000     0.00000000
 Br     1   0   0     2.081593097092     0.00000000     0.00000000
 H      1   2   0     1.086476304178   103.32800174     0.00000000
 H      1   2   3     1.086483523299   103.33720464   242.95711331
 H      1   2   3     1.102839709600   114.26717217   121.47591204
 F      5   1   2     1.749511191670   122.36982087   180.00725289

---------------------------
INTERNAL COORDINATES (A.U.)
---------------------------
 C      0   0   0     0.000000000000     0.00000000     0.00000000
 Br     1   0   0     3.933640875765     0.00000000     0.00000000
 H      1   2   0     2.053142665891   103.32800174     0.00000000
 H      1   2   3     2.053156308053   103.33720464   242.95711331
 H      1   2   3     2.084065020757   114.26717217   121.47591204
 F      5   1   2     3.306097020487   122.36982087   180.00725289

---------------------
BASIS SET INFORMATION
---------------------
There are 4 groups of distinct atoms

 Group   1 Type C   : 11s6p1d contracted to 5s3p1d pattern {62111/411/1}
 Group   2 Type Br  : 17s13p7d contracted to 6s5p3d pattern {842111/64111/511}
 Group   3 Type H   : 4s1p contracted to 2s1p pattern {31/1}
 Group   4 Type F   : 11s6p2d contracted to 5s3p2d pattern {62111/411/11}

Atom   0C    basis set group =>   1
Atom   1Br   basis set group =>   2
Atom   2H    basis set group =>   3
Atom   3H    basis set group =>   3
Atom   4H    basis set group =>   3
Atom   5F    basis set group =>   4
---------------------------------
AUXILIARY/J BASIS SET INFORMATION
---------------------------------
There are 4 groups of distinct atoms

 Group   1 Type C   : 8s3p3d contracted to 6s3p3d pattern {311111/111/111}
 Group   2 Type Br  : 19s5p5d3f1g contracted to 8s4p3d2f1g pattern {121111111/2111/311/21/1}
 Group   3 Type H   : 5s2p1d contracted to 3s1p1d pattern {311/2/1}
 Group   4 Type F   : 8s3p4d contracted to 6s3p4d pattern {311111/111/1111}

Atom   0C    basis set group =>   1
Atom   1Br   basis set group =>   2
Atom   2H    basis set group =>   3
Atom   3H    basis set group =>   3
Atom   4H    basis set group =>   3
Atom   5F    basis set group =>   4


           ************************************************************
           *        Program running with 8 parallel MPI-processes     *
           *              working on a common directory               *
           ************************************************************
------------------------------------------------------------------------------
                           ORCA GTO INTEGRAL CALCULATION
                           -- RI-GTO INTEGRALS CHOSEN --
------------------------------------------------------------------------------
------------------------------------------------------------------------------
                   ___                                                        
                  /   \      - P O W E R E D   B Y -                         
                 /     \                                                     
                 |  |  |   _    _      __       _____    __    __             
                 |  |  |  | |  | |    /  \     |  _  \  |  |  /  |          
                  \  \/   | |  | |   /    \    | | | |  |  | /  /          
                 / \  \   | |__| |  /  /\  \   | |_| |  |  |/  /          
                |  |  |   |  __  | /  /__\  \  |    /   |      \           
                |  |  |   | |  | | |   __   |  |    \   |  |\   \          
                \     /   | |  | | |  |  |  |  | |\  \  |  | \   \       
                 \___/    |_|  |_| |__|  |__|  |_| \__\ |__|  \__/        
                                                                              
                      - O R C A' S   B I G   F R I E N D -                    
                                      &                                       
                       - I N T E G R A L  F E E D E R -                       
                                                                              
 v1 FN, 2020, v2 2021                                                         
------------------------------------------------------------------------------


Reading SHARK input file /home/wontleave/calc/autoopt/methylBr_F/run.copt.r2scan-3c.SHARKINP.tmp ... ok
----------------------
SHARK INTEGRAL PACKAGE
----------------------

Number of atoms                             ...      6
Number of basis functions                   ...     94
Number of shells                            ...     42
Maximum angular momentum                    ...      2
Integral batch strategy                     ... SHARK/LIBINT Hybrid
RI-J (if used) integral strategy            ... SPLIT-RIJ (Revised 2003 algorithm where possible)
Printlevel                                  ...      1
Contraction scheme used                     ... SEGMENTED contraction
Coulomb Range Separation                    ... NOT USED
Exchange Range Separation                   ... NOT USED
Finite Nucleus Model                        ... NOT USED
Auxiliary Coulomb fitting basis             ... AVAILABLE
   # of basis functions in Aux-J            ...    156
   # of shells in Aux-J                     ...     58
   Maximum angular momentum in Aux-J        ...      4
Auxiliary J/K fitting basis                 ... NOT available
Auxiliary Correlation fitting basis         ... NOT available
Auxiliary 'external' fitting basis          ... NOT available
Integral threshold                          ...     1.000000e-12
Primitive cut-off                           ...     1.000000e-14
Primitive pair pre-selection threshold      ...     1.000000e-14

Calculating pre-screening integrals         ... done (  0.0 sec) Dimension = 42
Organizing shell pair data                  ... done (  0.0 sec)
Shell pair information
Total number of shell pairs                 ...       903
Shell pairs after pre-screening             ...       835
Total number of primitive shell pairs       ...      4124
Primitive shell pairs kept                  ...      2953
          la=0 lb=0:    226 shell pairs
          la=1 lb=0:    289 shell pairs
          la=1 lb=1:    102 shell pairs
          la=2 lb=0:    120 shell pairs
          la=2 lb=1:     79 shell pairs
          la=2 lb=2:     19 shell pairs

Calculating one electron integrals          ... done (  0.0 sec)
Calculating RI/J V-Matrix + Cholesky decomp.... done (  0.0 sec)
Calculating Nuclear repulsion               ... done (  0.0 sec) ENN=    139.207847939389 Eh

SHARK setup successfully completed in   0.1 seconds

Maximum memory used throughout the entire GTOINT-calculation: 14.0 MB


           ************************************************************
           *        Program running with 8 parallel MPI-processes     *
           *              working on a common directory               *
           ************************************************************
-------------------------------------------------------------------------------
                                 ORCA SCF
-------------------------------------------------------------------------------

------------
SCF SETTINGS
------------
Hamiltonian:
 Density Functional     Method          .... DFT(GTOs)
  Functional kind                       .... Exchange
  Functional name                       .... Re-regularized SCAN exchange by Furness et al
  Functional family                     .... MGGA
  Functional refs                              
    [ 0] J. W. Furness, A. D. Kaplan, J. Ning, J. P. Perdew, and J. Sun, J. Phys. Chem. Lett. 11, 8208 (2020)
    [ 1] J. W. Furness, A. D. Kaplan, J. Ning, J. P. Perdew, and J. Sun, J. Phys. Chem. Lett. 11, 9248 (2020)
  Functional external parameters         .... 8
 Parameter  0 :         c1 parameter
 Parameter  1 :         c2 parameter
 Parameter  2 :          d parameter
 Parameter  3 :         k1 parameter
 Parameter  4 :       taur parameter
 Parameter  5 :     alphar parameter
 Parameter  6 :        eta parameter
 Parameter  7 :        dp2 parameter
  Functional kind                       .... Correlation
  Functional name                       .... Re-regularized SCAN correlation by Furness et al
  Functional family                     .... MGGA
  Functional refs                              
    [ 0] J. W. Furness, A. D. Kaplan, J. Ning, J. P. Perdew, and J. Sun, J. Phys. Chem. Lett. 11, 8208 (2020)
    [ 1] J. W. Furness, A. D. Kaplan, J. Ning, J. P. Perdew, and J. Sun, J. Phys. Chem. Lett. 11, 9248 (2020)
  Functional external parameters         .... 0
 Gradients option       PostSCFGGA      .... off
   Density functional embedding theory  .... OFF
 RI-approximation to the Coulomb term is turned on
   Number of AuxJ basis functions       .... 156


General Settings:
 Integral files         IntName         .... /home/wontleave/calc/autoopt/methylBr_F/run.copt.r2scan-3c
 Hartree-Fock type      HFTyp           .... RHF
 Total Charge           Charge          ....   -1
 Multiplicity           Mult            ....    1
 Number of Electrons    NEL             ....   54
 Basis Dimension        Dim             ....   94
 Nuclear Repulsion      ENuc            ....    139.2078479394 Eh

Convergence Acceleration:
 DIIS                   CNVDIIS         .... on
   Start iteration      DIISMaxIt       ....    12
   Startup error        DIISStart       ....  0.200000
   # of expansion vecs  DIISMaxEq       ....     5
   Bias factor          DIISBfac        ....   1.050
   Max. coefficient     DIISMaxC        ....  10.000
 Trust-Rad. Augm. Hess. CNVTRAH         .... auto
   Auto Start mean grad. ratio tolernc. ....  1.125000
   Auto Start start iteration           ....     1
   Auto Start num. interpolation iter.  ....    10
   Max. Number of Micro iterations      ....    16
   Max. Number of Macro iterations      .... Maxiter - #DIIS iter
   Number of Davidson start vectors     ....     2
   Converg. threshold I  (grad. norm)   ....   2.000e-06
   Converg. threshold II (energy diff.) ....   1.000e-09
   Grad. Scal. Fac. for Micro threshold ....   0.100
   Minimum threshold for Micro iter.    ....   0.010
   NR start threshold (gradient norm)   ....   0.001
   Initial trust radius                 ....   0.400
   Minimum AH scaling param. (alpha)    ....   1.000
   Maximum AH scaling param. (alpha)    .... 1000.000
   Orbital update algorithm             .... Taylor
   White noise on init. David. guess    .... on
   Maximum white noise                  ....   0.010
   Quad. conv. algorithm                .... NR
   COSX micro iterations for RIJONX calc.... off
 SOSCF                  CNVSOSCF        .... on
   Start iteration      SOSCFMaxIt      ....   150
   Startup grad/error   SOSCFStart      ....  0.003300
 Level Shifting         CNVShift        .... on
   Level shift para.    LevelShift      ....    0.2500
   Turn off err/grad.   ShiftErr        ....    0.0010
 Zerner damping         CNVZerner       .... off
 Static damping         CNVDamp         .... on
   Fraction old density DampFac         ....    0.7000
   Max. Damping (<1)    DampMax         ....    0.9800
   Min. Damping (>=0)   DampMin         ....    0.0000
   Turn off err/grad.   DampErr         ....    0.1000
 Fernandez-Rico         CNVRico         .... off

SCF Procedure:
 Maximum # iterations   MaxIter         ....   125
 SCF integral mode      SCFMode         .... Direct
   Integral package                     .... SHARK and LIBINT hybrid scheme
 Reset frequency        DirectResetFreq ....    20
 Integral Threshold     Thresh          ....  1.000e-12 Eh
 Primitive CutOff       TCut            ....  1.000e-14 Eh

Convergence Tolerance:
 Convergence Check Mode ConvCheckMode   .... Total+1el-Energy
 Convergence forced     ConvForced      .... 0
 Energy Change          TolE            ....  1.000e-09 Eh
 1-El. energy change                    ....  1.000e-06 Eh
 Orbital Gradient       TolG            ....  2.000e-06
 Orbital Rotation angle TolX            ....  2.000e-06
 DIIS Error             TolErr          ....  1.000e-08


Diagonalization of the overlap matrix:
Smallest eigenvalue                        ... 6.655e-03
Time for diagonalization                   ...    0.001 sec
Threshold for overlap eigenvalues          ... 1.000e-08
Number of eigenvalues below threshold      ... 0
Time for construction of square roots      ...    0.000 sec
Total time needed                          ...    0.002 sec

---------------------
INITIAL GUESS: MOREAD
---------------------
Guess MOs are being read from file: /home/wontleave/calc/autoopt/methylBr_F/run.copt.r2scan-3c.gbw
Input Geometry matches current geometry (good)
Input basis set matches current basis set (good)
MOs were renormalized
MOs were reorthogonalized (Cholesky)
                      ------------------
                      INITIAL GUESS DONE (   0.0 sec)
                      ------------------
-------------------
DFT GRID GENERATION
-------------------

General Integration Accuracy     IntAcc      ... 4.388
Radial Grid Type                 RadialGrid  ... OptM3 with GC (2021)
Angular Grid (max. ang.)         AngularGrid ... 4 (Lebedev-302)
Angular grid pruning method      GridPruning ... 4 (adaptive)
Weight generation scheme         WeightScheme... Becke
Basis function cutoff            BFCut       ... 1.0000e-12
Integration weight cutoff        WCut        ... 1.0000e-14
Angular grids for H and He will be reduced by one unit
Partially contracted basis set               ... off
Rotationally invariant grid construction     ... off

Total number of grid points                  ...    33381
Total number of batches                      ...      526
Average number of points per batch           ...       63
Average number of grid points per atom       ...     5564
Time for grid setup =    0.157 sec

--------------
SCF ITERATIONS
--------------
ITER       Energy         Delta-E        Max-DP      RMS-DP      [F,P]     Damp
               ***  Starting incremental Fock matrix formation  ***
                      *** Initiating the SOSCF procedure ***
                      *** Re-Reading the Fockian *** 
                      *** Removing any level shift *** 
ITER      Energy       Delta-E        Grad      Rot      Max-DP    RMS-DP
  0  -2713.90264371 -2713.9026437132  0.000000  0.000000  0.000000  0.000000
               *** Restarting incremental Fock matrix formation ***
                  ***Gradient check signals convergence***
              ***Rediagonalizing the Fockian in SOSCF/NRSCF***

               *****************************************************
               *                     SUCCESS                       *
               *           SCF CONVERGED AFTER   1 CYCLES          *
               *****************************************************


----------------
TOTAL SCF ENERGY
----------------

Total Energy       :        -2713.90264371 Eh          -73849.04535 eV

Components:
Nuclear Repulsion  :          139.20784794 Eh            3788.03812 eV
Electronic Energy  :        -2853.11049165 Eh          -77637.08347 eV
One Electron Energy:        -4064.00203687 Eh         -110587.11756 eV
Two Electron Energy:         1210.89154522 Eh           32950.03409 eV

Virial components:
Potential Energy   :        -5423.88301253 Eh         -147591.36017 eV
Kinetic Energy     :         2709.98036882 Eh           73742.31482 eV
Virial Ratio       :            2.00144734


DFT components:
N(Alpha)           :       26.999993511834 electrons
N(Beta)            :       26.999993511834 electrons
N(Total)           :       53.999987023668 electrons
E(X)               :     -106.134578833128 Eh       
E(C)               :       -2.324622725032 Eh       
E(XC)              :     -108.459201558159 Eh       
DFET-embed. en.    :        0.000000000000 Eh       

---------------
SCF CONVERGENCE
---------------

  Last Energy change         ...    1.0459e-11  Tolerance :   1.0000e-09
  Last MAX-Density change    ...    5.1535e-07  Tolerance :   1.0000e-08
  Last RMS-Density change    ...    2.3552e-08  Tolerance :   1.0000e-09
  Last Orbital Gradient      ...    1.0844e-07  Tolerance :   2.0000e-06
  Last Orbital Rotation      ...    8.4741e-07  Tolerance :   2.0000e-06

             **** THE GBW FILE WAS UPDATED (/home/wontleave/calc/autoopt/methylBr_F/run.copt.r2scan-3c.gbw) ****
             **** DENSITY /home/wontleave/calc/autoopt/methylBr_F/run.copt.r2scan-3c.scfp WAS UPDATED ****
             **** ENERGY FILE WAS UPDATED (/home/wontleave/calc/autoopt/methylBr_F/run.copt.r2scan-3c.en.tmp) ****
             **** THE GBW FILE WAS UPDATED (/home/wontleave/calc/autoopt/methylBr_F/run.copt.r2scan-3c.gbw) ****
             **** DENSITY /home/wontleave/calc/autoopt/methylBr_F/run.copt.r2scan-3c.scfp WAS UPDATED ****
----------------
ORBITAL ENERGIES
----------------

  NO   OCC          E(Eh)            E(eV) 
   0   2.0000    -482.052223    -13117.3079 
   1   2.0000     -62.124375     -1690.4902 
   2   2.0000     -55.905299     -1521.2605 
   3   2.0000     -55.901975     -1521.1701 
   4   2.0000     -55.901931     -1521.1689 
   5   2.0000     -24.080838      -655.2729 
   6   2.0000      -9.902928      -269.4724 
   7   2.0000      -8.455908      -230.0970 
   8   2.0000      -6.261488      -170.3838 
   9   2.0000      -6.250668      -170.0893 
  10   2.0000      -6.250640      -170.0886 
  11   2.0000      -2.359419       -64.2031 
  12   2.0000      -2.356897       -64.1344 
  13   2.0000      -2.356847       -64.1331 
  14   2.0000      -2.348666       -63.9105 
  15   2.0000      -2.348662       -63.9103 
  16   2.0000      -0.712813       -19.3966 
  17   2.0000      -0.579835       -15.7781 
  18   2.0000      -0.462341       -12.5809 
  19   2.0000      -0.232124        -6.3164 
  20   2.0000      -0.214276        -5.8308 
  21   2.0000      -0.180138        -4.9018 
  22   2.0000      -0.099184        -2.6989 
  23   2.0000      -0.099117        -2.6971 
  24   2.0000       0.003064         0.0834 
  25   2.0000       0.005565         0.1514 
  26   2.0000       0.006591         0.1793 
  27   0.0000       0.122503         3.3335 
  28   0.0000       0.267828         7.2880 
  29   0.0000       0.336204         9.1486 
  30   0.0000       0.338083         9.1997 
  31   0.0000       0.365790         9.9537 
  32   0.0000       0.370222        10.0742 
  33   0.0000       0.386663        10.5216 
  34   0.0000       0.406164        11.0523 
  35   0.0000       0.429896        11.6981 
  36   0.0000       0.448454        12.2031 
  37   0.0000       0.524550        14.2737 
  38   0.0000       0.620905        16.8957 
  39   0.0000       0.624601        16.9963 
  40   0.0000       0.654487        17.8095 
  41   0.0000       0.676205        18.4005 
  42   0.0000       0.746529        20.3141 
  43   0.0000       0.811412        22.0796 
  44   0.0000       0.858310        23.3558 
  45   0.0000       0.866932        23.5904 
  46   0.0000       0.941124        25.6093 
  47   0.0000       1.016499        27.6603 
  48   0.0000       1.040016        28.3003 
  49   0.0000       1.041859        28.3504 
  50   0.0000       1.056052        28.7366 
  51   0.0000       1.107684        30.1416 
  52   0.0000       1.172478        31.9047 
  53   0.0000       1.189586        32.3703 
  54   0.0000       1.262754        34.3613 
  55   0.0000       1.386315        37.7235 
  56   0.0000       1.466047        39.8932 
  57   0.0000       1.472849        40.0782 
  58   0.0000       1.551006        42.2050 
  59   0.0000       1.575117        42.8611 
  60   0.0000       1.681920        45.7674 
  61   0.0000       1.763729        47.9935 
  62   0.0000       1.790329        48.7173 
  63   0.0000       1.850067        50.3429 
  64   0.0000       1.890959        51.4556 
  65   0.0000       2.047942        55.7273 
  66   0.0000       2.327855        63.3442 
  67   0.0000       2.370335        64.5001 
  68   0.0000       2.445895        66.5562 
  69   0.0000       2.462060        66.9961 
  70   0.0000       2.611704        71.0681 
  71   0.0000       2.740232        74.5655 
  72   0.0000       2.843447        77.3741 
  73   0.0000       2.848312        77.5065 
  74   0.0000       2.919183        79.4350 
  75   0.0000       2.940445        80.0136 
  76   0.0000       2.964107        80.6574 
  77   0.0000       3.009487        81.8923 
  78   0.0000       3.174770        86.3899 
  79   0.0000       3.363146        91.5159 
  80   0.0000       3.539327        96.3100 
  81   0.0000       3.549610        96.5898 
  82   0.0000       3.589939        97.6872 
  83   0.0000       3.641384        99.0871 
  84   0.0000       3.673883        99.9715 
  85   0.0000       3.723489       101.3213 
  86   0.0000       3.724487       101.3484 
  87   0.0000       3.763204       102.4020 
  88   0.0000       3.808263       103.6281 
  89   0.0000       3.835116       104.3588 
  90   0.0000       4.222362       114.8963 
  91   0.0000       7.448903       202.6949 
  92   0.0000      21.948816       597.2576 
  93   0.0000      56.901510      1548.3688 

                    ********************************
                    * MULLIKEN POPULATION ANALYSIS *
                    ********************************

-----------------------
MULLIKEN ATOMIC CHARGES
-----------------------
   0 C :   -0.338206
   1 Br:   -0.409484
   2 H :    0.141835
   3 H :    0.141845
   4 H :    0.269696
   5 F :   -0.805685
Sum of atomic charges:   -1.0000000

--------------------------------
MULLIKEN REDUCED ORBITAL CHARGES
--------------------------------
  0 C s       :     3.324061  s :     3.324061
      pz      :     1.091115  p :     2.991927
      px      :     0.712204
      py      :     1.188608
      dz2     :     0.005724  d :     0.022217
      dxz     :     0.001998
      dyz     :     0.004602
      dx2y2   :     0.006054
      dxy     :     0.003839
  1 Brs       :     7.959918  s :     7.959918
      pz      :     5.994649  p :    17.416805
      px      :     5.453038
      py      :     5.969118
      dz2     :     2.004480  d :    10.032762
      dxz     :     2.006911
      dyz     :     2.000510
      dx2y2   :     2.012976
      dxy     :     2.007884
  2 H s       :     0.839485  s :     0.839485
      pz      :     0.006549  p :     0.018680
      px      :     0.003345
      py      :     0.008786
  3 H s       :     0.839477  s :     0.839477
      pz      :     0.010968  p :     0.018678
      px      :     0.003420
      py      :     0.004290
  4 H s       :     0.706216  s :     0.706216
      pz      :     0.003747  p :     0.024088
      px      :     0.012936
      py      :     0.007405
  5 F s       :     3.989503  s :     3.989503
      pz      :     1.981793  p :     5.816662
      px      :     1.877637
      py      :     1.957233
      dz2     :    -0.000074  d :    -0.000480
      dxz     :    -0.000007
      dyz     :    -0.000034
      dx2y2   :    -0.000263
      dxy     :    -0.000101


                     *******************************
                     * LOEWDIN POPULATION ANALYSIS *
                     *******************************

----------------------
LOEWDIN ATOMIC CHARGES
----------------------
   0 C :   -0.486548
   1 Br:   -0.180449
   2 H :    0.143146
   3 H :    0.143148
   4 H :    0.211702
   5 F :   -0.830999

-------------------------------
LOEWDIN REDUCED ORBITAL CHARGES
-------------------------------
  0 C s       :     3.129064  s :     3.129064
      pz      :     1.189632  p :     3.307185
      px      :     0.882997
      py      :     1.234556
      dz2     :     0.013855  d :     0.050298
      dxz     :     0.003920
      dyz     :     0.011434
      dx2y2   :     0.012755
      dxy     :     0.008334
  1 Brs       :     7.778894  s :     7.778894
      pz      :     5.974197  p :    17.355852
      px      :     5.429612
      py      :     5.952043
      dz2     :     2.007037  d :    10.045704
      dxz     :     2.007539
      dyz     :     2.000592
      dx2y2   :     2.020501
      dxy     :     2.010035
  2 H s       :     0.811564  s :     0.811564
      pz      :     0.015827  p :     0.045291
      px      :     0.006743
      py      :     0.022721
  3 H s       :     0.811562  s :     0.811562
      pz      :     0.028063  p :     0.045289
      px      :     0.006942
      py      :     0.010284
  4 H s       :     0.715821  s :     0.715821
      pz      :     0.009329  p :     0.072477
      px      :     0.040972
      py      :     0.022176
  5 F s       :     3.971983  s :     3.971983
      pz      :     1.985874  p :     5.836280
      px      :     1.884010
      py      :     1.966396
      dz2     :     0.005076  d :     0.022736
      dxz     :     0.001027
      dyz     :     0.000137
      dx2y2   :     0.014922
      dxy     :     0.001575


                      *****************************
                      * MAYER POPULATION ANALYSIS *
                      *****************************

  NA   - Mulliken gross atomic population
  ZA   - Total nuclear charge
  QA   - Mulliken gross atomic charge
  VA   - Mayer's total valence
  BVA  - Mayer's bonded valence
  FA   - Mayer's free valence

  ATOM       NA         ZA         QA         VA         BVA        FA
  0 C      6.3382     6.0000    -0.3382     3.7362     3.7362    -0.0000
  1 Br    35.4095    35.0000    -0.4095     0.8236     0.8236     0.0000
  2 H      0.8582     1.0000     0.1418     0.9600     0.9600     0.0000
  3 H      0.8582     1.0000     0.1418     0.9600     0.9600     0.0000
  4 H      0.7303     1.0000     0.2697     0.9480     0.9480     0.0000
  5 F      9.8057     9.0000    -0.8057     0.3023     0.3023     0.0000

  Mayer bond orders larger than 0.100000
B(  0-C ,  1-Br) :   0.7546 B(  0-C ,  2-H ) :   0.9670 B(  0-C ,  3-H ) :   0.9670 
B(  0-C ,  4-H ) :   0.8726 B(  0-C ,  5-F ) :   0.1749 

-------
TIMINGS
-------

Total SCF time: 0 days 0 hours 0 min 0 sec 

Total time                  ....       0.342 sec
Sum of individual times     ....       0.279 sec  ( 81.6%)

Fock matrix formation       ....       0.111 sec  ( 32.4%)
  Split-RI-J                ....       0.017 sec  ( 15.8% of F)
  XC integration            ....       0.096 sec  ( 86.5% of F)
    Basis function eval.    ....       0.016 sec  ( 16.8% of XC)
    Density eval.           ....       0.022 sec  ( 23.1% of XC)
    XC-Functional eval.     ....       0.026 sec  ( 27.0% of XC)
    XC-Potential eval.      ....       0.016 sec  ( 16.9% of XC)
Diagonalization             ....       0.002 sec  (  0.6%)
Density matrix formation    ....       0.000 sec  (  0.1%)
Population analysis         ....       0.003 sec  (  0.8%)
Initial guess               ....       0.002 sec  (  0.6%)
Orbital Transformation      ....       0.000 sec  (  0.0%)
Orbital Orthonormalization  ....       0.001 sec  (  0.2%)
DIIS solution               ....       0.002 sec  (  0.6%)
SOSCF solution              ....       0.002 sec  (  0.6%)
Grid generation             ....       0.157 sec  ( 46.0%)

Maximum memory used throughout the entire SCF-calculation: 12.7 MB


-------------------------------------------------------------------------------
                          DFT DISPERSION CORRECTION                            
                                                                               
                                 DFTD4 V2.5                                    
-------------------------------------------------------------------------------
The R2SCAN3C composite method is recognized
Using three-body term ABC
Active option DFTDOPT                   ...         5   

Starting D4
-------------------------   ----------------
Dispersion correction           -0.000852458
-------------------------   ----------------

------------------   -----------------
gCP correction             0.004146184
------------------   -----------------

-------------------------   --------------------
FINAL SINGLE POINT ENERGY     -2713.899349987405
-------------------------   --------------------

                                *** OPTIMIZATION RUN DONE ***

                            ***************************************
                            *     ORCA property calculations      *
                            ***************************************

                                    ---------------------
                                    Active property flags
                                    ---------------------
   (+) Dipole Moment


------------------------------------------------------------------------------
                       ORCA ELECTRIC PROPERTIES CALCULATION
------------------------------------------------------------------------------

Dipole Moment Calculation                       ... on
Quadrupole Moment Calculation                   ... off
Polarizability Calculation                      ... off
GBWName                                         ... /home/wontleave/calc/autoopt/methylBr_F/run.copt.r2scan-3c.gbw
Electron density                                ... /home/wontleave/calc/autoopt/methylBr_F/run.copt.r2scan-3c.scfp
The origin for moment calculation is the CENTER OF MASS  = (-1.551395, -0.324899  0.179934)

-------------
DIPOLE MOMENT
-------------
                                X             Y             Z
Electronic contribution:     13.70151       1.22106       0.24908
Nuclear contribution   :     -9.99305      -1.77264      -0.51126
                        -----------------------------------------
Total Dipole Moment    :      3.70846      -0.55158      -0.26218
                        -----------------------------------------
Magnitude (a.u.)       :      3.75842
Magnitude (Debye)      :      9.55313



--------------------
Rotational spectrum 
--------------------
 
Rotational constants in cm-1:     2.198769     0.051909     0.051216 
Rotational constants in MHz : 65917.425087  1556.177903  1535.426076 

 Dipole components along the rotational axes: 
x,y,z [a.u.] :    -3.733216    -0.434493     0.000022 
x,y,z [Debye]:    -9.489082    -1.104393     0.000055 

 

Timings for individual modules:

Sum of individual times         ...        2.653 sec (=   0.044 min)
GTO integral calculation        ...        0.370 sec (=   0.006 min)  14.0 %
SCF iterations                  ...        1.820 sec (=   0.030 min)  68.6 %
SCF Gradient evaluation         ...        0.450 sec (=   0.008 min)  17.0 %
Geometry relaxation             ...        0.011 sec (=   0.000 min)   0.4 %
                             ****ORCA TERMINATED NORMALLY****
TOTAL RUN TIME: 0 days 0 hours 0 minutes 2 seconds 860 msec
