
                                 *****************
                                 * O   R   C   A *
                                 *****************

                                            #,                                       
                                            ###                                      
                                            ####                                     
                                            #####                                    
                                            ######                                   
                                           ########,                                 
                                     ,,################,,,,,                         
                               ,,#################################,,                 
                          ,,##########################################,,             
                       ,#########################################, ''#####,          
                    ,#############################################,,   '####,        
                  ,##################################################,,,,####,       
                ,###########''''           ''''###############################       
              ,#####''   ,,,,##########,,,,          '''####'''          '####       
            ,##' ,,,,###########################,,,                        '##       
           ' ,,###''''                  '''############,,,                           
         ,,##''                                '''############,,,,        ,,,,,,###''
      ,#''                                            '''#######################'''  
     '                                                          ''''####''''         
             ,#######,   #######,   ,#######,      ##                                
            ,#'     '#,  ##    ##  ,#'     '#,    #''#        ######   ,####,        
            ##       ##  ##   ,#'  ##            #'  '#       #        #'  '#        
            ##       ##  #######   ##           ,######,      #####,   #    #        
            '#,     ,#'  ##    ##  '#,     ,#' ,#      #,         ##   #,  ,#        
             '#######'   ##     ##  '#######'  #'      '#     #####' # '####'        



                  #######################################################
                  #                        -***-                        #
                  #          Department of theory and spectroscopy      #
                  #    Directorship and core code : Frank Neese         #
                  #        Max Planck Institute fuer Kohlenforschung    #
                  #                Kaiser Wilhelm Platz 1               #
                  #                 D-45470 Muelheim/Ruhr               #
                  #                      Germany                        #
                  #                                                     #
                  #                  All rights reserved                #
                  #                        -***-                        #
                  #######################################################


                         Program Version 5.0.3 -  RELEASE  -


 With contributions from (in alphabetic order):
   Daniel Aravena         : Magnetic Suceptibility
   Michael Atanasov       : Ab Initio Ligand Field Theory (pilot matlab implementation)
   Alexander A. Auer      : GIAO ZORA, VPT2 properties, NMR spectrum
   Ute Becker             : Parallelization
   Giovanni Bistoni       : ED, misc. LED, open-shell LED, HFLD
   Martin Brehm           : Molecular dynamics
   Dmytro Bykov           : SCF Hessian
   Vijay G. Chilkuri      : MRCI spin determinant printing, contributions to CSF-ICE
   Dipayan Datta          : RHF DLPNO-CCSD density
   Achintya Kumar Dutta   : EOM-CC, STEOM-CC
   Dmitry Ganyushin       : Spin-Orbit,Spin-Spin,Magnetic field MRCI
   Miquel Garcia          : C-PCM and meta-GGA Hessian, CC/C-PCM, Gaussian charge scheme
   Yang Guo               : DLPNO-NEVPT2, F12-NEVPT2, CIM, IAO-localization
   Andreas Hansen         : Spin unrestricted coupled pair/coupled cluster methods
   Benjamin Helmich-Paris : MC-RPA, TRAH-SCF, COSX integrals
   Lee Huntington         : MR-EOM, pCC
   Robert Izsak           : Overlap fitted RIJCOSX, COSX-SCS-MP3, EOM
   Marcus Kettner         : VPT2
   Christian Kollmar      : KDIIS, OOCD, Brueckner-CCSD(T), CCSD density, CASPT2, CASPT2-K
   Simone Kossmann        : Meta GGA functionals, TD-DFT gradient, OOMP2, MP2 Hessian
   Martin Krupicka        : Initial AUTO-CI
   Lucas Lang             : DCDCAS
   Marvin Lechner         : AUTO-CI (C++ implementation), FIC-MRCC
   Dagmar Lenk            : GEPOL surface, SMD
   Dimitrios Liakos       : Extrapolation schemes; Compound Job, initial MDCI parallelization
   Dimitrios Manganas     : Further ROCIS development; embedding schemes
   Dimitrios Pantazis     : SARC Basis sets
   Anastasios Papadopoulos: AUTO-CI, single reference methods and gradients
   Taras Petrenko         : DFT Hessian,TD-DFT gradient, ASA, ECA, R-Raman, ABS, FL, XAS/XES, NRVS
   Peter Pinski           : DLPNO-MP2, DLPNO-MP2 Gradient
   Christoph Reimann      : Effective Core Potentials
   Marius Retegan         : Local ZFS, SOC
   Christoph Riplinger    : Optimizer, TS searches, QM/MM, DLPNO-CCSD(T), (RO)-DLPNO pert. Triples
   Tobias Risthaus        : Range-separated hybrids, TD-DFT gradient, RPA, STAB
   Michael Roemelt        : Original ROCIS implementation
   Masaaki Saitow         : Open-shell DLPNO-CCSD energy and density
   Barbara Sandhoefer     : DKH picture change effects
   Avijit Sen             : IP-ROCIS
   Kantharuban Sivalingam : CASSCF convergence, NEVPT2, FIC-MRCI
   Bernardo de Souza      : ESD, SOC TD-DFT
   Georgi Stoychev        : AutoAux, RI-MP2 NMR, DLPNO-MP2 response
   Willem Van den Heuvel  : Paramagnetic NMR
   Boris Wezisla          : Elementary symmetry handling
   Frank Wennmohs         : Technical directorship


 We gratefully acknowledge several colleagues who have allowed us to
 interface, adapt or use parts of their codes:
   Stefan Grimme, W. Hujo, H. Kruse, P. Pracht,  : VdW corrections, initial TS optimization,
                  C. Bannwarth, S. Ehlert          DFT functionals, gCP, sTDA/sTD-DF
   Ed Valeev, F. Pavosevic, A. Kumar             : LibInt (2-el integral package), F12 methods
   Garnet Chan, S. Sharma, J. Yang, R. Olivares  : DMRG
   Ulf Ekstrom                                   : XCFun DFT Library
   Mihaly Kallay                                 : mrcc  (arbitrary order and MRCC methods)
   Jiri Pittner, Ondrej Demel                    : Mk-CCSD
   Frank Weinhold                                : gennbo (NPA and NBO analysis)
   Christopher J. Cramer and Donald G. Truhlar   : smd solvation model
   Lars Goerigk                                  : TD-DFT with DH, B97 family of functionals
   V. Asgeirsson, H. Jonsson                     : NEB implementation
   FAccTs GmbH                                   : IRC, NEB, NEB-TS, DLPNO-Multilevel, CI-OPT
                                                   MM, QMMM, 2- and 3-layer-ONIOM, Crystal-QMMM,
                                                   LR-CPCM, SF, NACMEs, symmetry and pop. for TD-DFT,
                                                   nearIR, NL-DFT gradient (VV10), updates on ESD,
                                                   ML-optimized integration grids
   S Lehtola, MJT Oliveira, MAL Marques          : LibXC Library
   Liviu Ungur et al                             : ANISO software


 Your calculation uses the libint2 library for the computation of 2-el integrals
 For citations please refer to: http://libint.valeyev.net

 Your ORCA version has been built with support for libXC version: 5.1.0
 For citations please refer to: https://tddft.org/programs/libxc/

 This ORCA versions uses:
   CBLAS   interface :  Fast vector & matrix operations
   LAPACKE interface :  Fast linear algebra routines
   SCALAPACK package :  Parallel linear algebra routines
   Shared memory     :  Shared parallel matrices
   BLAS/LAPACK       :  OpenBLAS 0.3.15  USE64BITINT DYNAMIC_ARCH NO_AFFINITY Zen SINGLE_THREADED
        Core in use  :  Zen
   Copyright (c) 2011-2014, The OpenBLAS Project




***************************************
The coordinates will be read from file: run.copt.r2scan-3c.xyz
***************************************


Your calculation utilizes the geometrical counterpoise correction gCP
Please cite in your paper:
H.Kruse, S. Grimme J.Chem.Phys., 136, (2012), 154101 
   

Your calculation utilizes the atom-pairwise dispersion correction
based on tight binding partial charges (D4)
Cite in your paper:
E.Caldeweyher, C.Bannwarth, S.Grimme, J.Chem.Phys., (2017), 147, 034112.
E.Caldeweyher, S.Ehlert, A.Hansen, H.Neugebauer, S.Grimme, J.Chem.Phys., (2018), in progress.
   

================================================================================

----- Orbital basis set information -----
Your calculation utilizes the basis: def2-mTZVPP
   Stefan Grimme, Andreas Hansen, Sebastian Ehlert, and Jan-Michael Mewes 
   J. Chem. Phys. 154, 000000 (2021). DOI: 10.1063/5.0040021

----- AuxJ basis set information -----
Your calculation utilizes the basis: def2-mTZVPP/J
   Stefan Grimme, Andreas Hansen, Sebastian Ehlert, and Jan-Michael Mewes 
   J. Chem. Phys. 154, 000000 (2021). DOI: 10.1063/5.0040021

================================================================================
                                        WARNINGS
                       Please study these warnings very carefully!
================================================================================

WARNING: Old DensityContainer found on disk!
         Will remove this file - 
         If you want to keep old densities, please start your calculation with a different basename. 

Using LibXC functional ID 497 : Re-regularized SCAN exchange by Furness et al
[ 1]  J. W. Furness, A. D. Kaplan, J. Ning, J. P. Perdew, and J. Sun, J. Phys. Chem. Lett. 11, 8208 (2020)
[ 2]  J. W. Furness, A. D. Kaplan, J. Ning, J. P. Perdew, and J. Sun, J. Phys. Chem. Lett. 11, 9248 (2020)
Using LibXC functional ID 498 : Re-regularized SCAN correlation by Furness et al
[ 1]  J. W. Furness, A. D. Kaplan, J. Ning, J. P. Perdew, and J. Sun, J. Phys. Chem. Lett. 11, 8208 (2020)
[ 2]  J. W. Furness, A. D. Kaplan, J. Ning, J. P. Perdew, and J. Sun, J. Phys. Chem. Lett. 11, 9248 (2020)
Using LibXC functional ID 497 : Re-regularized SCAN exchange by Furness et al
[ 1]  J. W. Furness, A. D. Kaplan, J. Ning, J. P. Perdew, and J. Sun, J. Phys. Chem. Lett. 11, 8208 (2020)
[ 2]  J. W. Furness, A. D. Kaplan, J. Ning, J. P. Perdew, and J. Sun, J. Phys. Chem. Lett. 11, 9248 (2020)
Using LibXC functional ID 498 : Re-regularized SCAN correlation by Furness et al
[ 1]  J. W. Furness, A. D. Kaplan, J. Ning, J. P. Perdew, and J. Sun, J. Phys. Chem. Lett. 11, 8208 (2020)
[ 2]  J. W. Furness, A. D. Kaplan, J. Ning, J. P. Perdew, and J. Sun, J. Phys. Chem. Lett. 11, 9248 (2020)

WARNING: Geometry Optimization
  ===> : Switching off AutoStart
         For restart on a previous wavefunction, please use MOREAD

INFO   : the flag for use of the SHARK integral package has been found!

================================================================================
                                       INPUT FILE
================================================================================
NAME = /home/wontleave/calc/autoopt/methylBr_F/run.optTS.r2scan-3c.inp
|  1> !optTS verytightscf verytightopt r2scan-3c
|  2> %MaxCore 1000
|  3> %pal nprocs 8 end
|  4> %geom
|  5> 	MaxIter 9
|  6> 	GDIISMaxEq 17
|  7> 	Calc_Hess true
|  8> 	Recalc_Hess 5
|  9> 	Trust 0.15
| 10> 	modify_internal  {B 0 1 A} {B 0 5 A}  end
| 11> end
| 12> %Freq
| 13> end
| 14> * xyzfile -1 1 run.copt.r2scan-3c.xyz
| 15> 
| 16>                          ****END OF INPUT****
================================================================================

                       *****************************
                       * Geometry Optimization Run *
                       *****************************

Geometry optimization settings:
Update method            Update   .... Bofill
Choice of coordinates    CoordSys .... Z-matrix Internals
Initial Hessian          InHess   .... Almoef's Model

Convergence Tolerances:
Energy Change            TolE     ....  2.0000e-07 Eh
Max. Gradient            TolMAXG  ....  3.0000e-05 Eh/bohr
RMS Gradient             TolRMSG  ....  8.0000e-06 Eh/bohr
Max. Displacement        TolMAXD  ....  2.0000e-04 bohr
RMS Displacement         TolRMSD  ....  1.0000e-04 bohr
Strict Convergence                ....  False
------------------------------------------------------------------------------
                        ORCA OPTIMIZATION COORDINATE SETUP
------------------------------------------------------------------------------

The optimization will be done in new redundant internal coordinates
Making redundant internal coordinates   ...  (new redundants) Bond   1,  0 is already included
done
Following TS mode number                ...     0
Evaluating the initial hessian          ...  (Is done on the fly) done
Evaluating the coordinates              ...  done
Calculating the B-matrix                .... done
Calculating the G-matrix                .... done
Diagonalizing the G-matrix              .... done
The first mode is                       ....    4
The number of degrees of freedom        ....   12

    -----------------------------------------------------------------
                    Redundant Internal Coordinates


    -----------------------------------------------------------------
         Definition                    Initial Value    d2E/dq (diagonal element)
    -----------------------------------------------------------------
      1. B(Br  1,C   0)                  2.0816         0.000000   
      2. B(H   2,C   0)                  1.0865         0.000000   
      3. B(H   3,C   0)                  1.0865         0.000000   
      4. B(H   4,C   0)                  1.1028         0.000000   
      5. B(F   5,C   0)                  2.5185         0.000000   
      6. B(F   5,H   4)                  1.7495         0.000000   
      7. A(Br  1,C   0,H   3)          103.3372         0.000000   
      8. A(Br  1,C   0,H   2)          103.3280         0.000000   
      9. A(Br  1,C   0,H   4)          114.2672         0.000000   
     10. A(H   2,C   0,H   4)          111.6194         0.000000   
     11. A(H   3,C   0,H   4)          111.6186         0.000000   
     12. A(H   2,C   0,H   3)          112.1666         0.000000   
     13. A(C   0,H   4,F   5)          122.3698         0.000000   
     14. D(F   5,H   4,C   0,H   2)    -63.2057         0.000000   
     15. D(F   5,H   4,C   0,H   3)     63.2089         0.000000   
     16. D(F   5,H   4,C   0,Br  1)   -179.9927         0.000000   
    -----------------------------------------------------------------

Number of atoms                         .... 6
Number of degrees of freedom            .... 16

         *************************************************************
         *                GEOMETRY OPTIMIZATION CYCLE   1            *
         *************************************************************
---------------------------------
CARTESIAN COORDINATES (ANGSTROEM)
---------------------------------
  C     -1.840571   -0.579773   -0.041784
  Br     0.195051   -0.163049    0.083173
  H     -1.957651   -1.450572    0.597304
  H     -1.983286   -0.819727   -1.091784
  H     -2.493466    0.249569    0.277863
  F     -4.238677    0.128422    0.259138

----------------------------
CARTESIAN COORDINATES (A.U.)
----------------------------
  NO LB      ZA    FRAG     MASS         X           Y           Z
   0 C     6.0000    0    12.011   -3.478174   -1.095613   -0.078959
   1 Br   35.0000    0    79.900    0.368594   -0.308118    0.157173
   2 H     1.0000    0     1.008   -3.699424   -2.741183    1.128741
   3 H     1.0000    0     1.008   -3.747868   -1.549060   -2.063173
   4 H     1.0000    0     1.008   -4.711968    0.471617    0.525086
   5 F     9.0000    0    18.998   -8.009939    0.242682    0.489699

--------------------------------
INTERNAL COORDINATES (ANGSTROEM)
--------------------------------
 C      0   0   0     0.000000000000     0.00000000     0.00000000
 Br     1   0   0     2.081593097092     0.00000000     0.00000000
 H      1   2   0     1.086476304178   103.32800174     0.00000000
 H      1   2   3     1.086483523299   103.33720464   242.95711331
 H      1   2   3     1.102839709600   114.26717217   121.47591204
 F      5   1   2     1.749511191670   122.36982087   180.00725289

---------------------------
INTERNAL COORDINATES (A.U.)
---------------------------
 C      0   0   0     0.000000000000     0.00000000     0.00000000
 Br     1   0   0     3.933640875765     0.00000000     0.00000000
 H      1   2   0     2.053142665891   103.32800174     0.00000000
 H      1   2   3     2.053156308053   103.33720464   242.95711331
 H      1   2   3     2.084065020757   114.26717217   121.47591204
 F      5   1   2     3.306097020487   122.36982087   180.00725289

---------------------
BASIS SET INFORMATION
---------------------
There are 4 groups of distinct atoms

 Group   1 Type C   : 11s6p1d contracted to 5s3p1d pattern {62111/411/1}
 Group   2 Type Br  : 17s13p7d contracted to 6s5p3d pattern {842111/64111/511}
 Group   3 Type H   : 4s1p contracted to 2s1p pattern {31/1}
 Group   4 Type F   : 11s6p2d contracted to 5s3p2d pattern {62111/411/11}

Atom   0C    basis set group =>   1
Atom   1Br   basis set group =>   2
Atom   2H    basis set group =>   3
Atom   3H    basis set group =>   3
Atom   4H    basis set group =>   3
Atom   5F    basis set group =>   4
---------------------------------
AUXILIARY/J BASIS SET INFORMATION
---------------------------------
There are 4 groups of distinct atoms

 Group   1 Type C   : 8s3p3d contracted to 6s3p3d pattern {311111/111/111}
 Group   2 Type Br  : 19s5p5d3f1g contracted to 8s4p3d2f1g pattern {121111111/2111/311/21/1}
 Group   3 Type H   : 5s2p1d contracted to 3s1p1d pattern {311/2/1}
 Group   4 Type F   : 8s3p4d contracted to 6s3p4d pattern {311111/111/1111}

Atom   0C    basis set group =>   1
Atom   1Br   basis set group =>   2
Atom   2H    basis set group =>   3
Atom   3H    basis set group =>   3
Atom   4H    basis set group =>   3
Atom   5F    basis set group =>   4


           ************************************************************
           *        Program running with 8 parallel MPI-processes     *
           *              working on a common directory               *
           ************************************************************
------------------------------------------------------------------------------
                           ORCA GTO INTEGRAL CALCULATION
                           -- RI-GTO INTEGRALS CHOSEN --
------------------------------------------------------------------------------
------------------------------------------------------------------------------
                   ___                                                        
                  /   \      - P O W E R E D   B Y -                         
                 /     \                                                     
                 |  |  |   _    _      __       _____    __    __             
                 |  |  |  | |  | |    /  \     |  _  \  |  |  /  |          
                  \  \/   | |  | |   /    \    | | | |  |  | /  /          
                 / \  \   | |__| |  /  /\  \   | |_| |  |  |/  /          
                |  |  |   |  __  | /  /__\  \  |    /   |      \           
                |  |  |   | |  | | |   __   |  |    \   |  |\   \          
                \     /   | |  | | |  |  |  |  | |\  \  |  | \   \       
                 \___/    |_|  |_| |__|  |__|  |_| \__\ |__|  \__/        
                                                                              
                      - O R C A' S   B I G   F R I E N D -                    
                                      &                                       
                       - I N T E G R A L  F E E D E R -                       
                                                                              
 v1 FN, 2020, v2 2021                                                         
------------------------------------------------------------------------------


Reading SHARK input file /home/wontleave/calc/autoopt/methylBr_F/run.optTS.r2scan-3c.SHARKINP.tmp ... ok
----------------------
SHARK INTEGRAL PACKAGE
----------------------

Number of atoms                             ...      6
Number of basis functions                   ...     94
Number of shells                            ...     42
Maximum angular momentum                    ...      2
Integral batch strategy                     ... SHARK/LIBINT Hybrid
RI-J (if used) integral strategy            ... SPLIT-RIJ (Revised 2003 algorithm where possible)
Printlevel                                  ...      1
Contraction scheme used                     ... SEGMENTED contraction
Coulomb Range Separation                    ... NOT USED
Exchange Range Separation                   ... NOT USED
Finite Nucleus Model                        ... NOT USED
Auxiliary Coulomb fitting basis             ... AVAILABLE
   # of basis functions in Aux-J            ...    156
   # of shells in Aux-J                     ...     58
   Maximum angular momentum in Aux-J        ...      4
Auxiliary J/K fitting basis                 ... NOT available
Auxiliary Correlation fitting basis         ... NOT available
Auxiliary 'external' fitting basis          ... NOT available
Integral threshold                          ...     1.000000e-12
Primitive cut-off                           ...     1.000000e-14
Primitive pair pre-selection threshold      ...     1.000000e-14

Calculating pre-screening integrals         ... done (  0.0 sec) Dimension = 42
Organizing shell pair data                  ... done (  0.0 sec)
Shell pair information
Total number of shell pairs                 ...       903
Shell pairs after pre-screening             ...       835
Total number of primitive shell pairs       ...      4124
Primitive shell pairs kept                  ...      2953
          la=0 lb=0:    226 shell pairs
          la=1 lb=0:    289 shell pairs
          la=1 lb=1:    102 shell pairs
          la=2 lb=0:    120 shell pairs
          la=2 lb=1:     79 shell pairs
          la=2 lb=2:     19 shell pairs

Calculating one electron integrals          ... done (  0.0 sec)
Calculating RI/J V-Matrix + Cholesky decomp.... done (  0.0 sec)
Calculating Nuclear repulsion               ... done (  0.0 sec) ENN=    139.207847939389 Eh

SHARK setup successfully completed in   0.1 seconds

Maximum memory used throughout the entire GTOINT-calculation: 14.0 MB


           ************************************************************
           *        Program running with 8 parallel MPI-processes     *
           *              working on a common directory               *
           ************************************************************
-------------------------------------------------------------------------------
                                 ORCA SCF
-------------------------------------------------------------------------------

------------
SCF SETTINGS
------------
Hamiltonian:
 Density Functional     Method          .... DFT(GTOs)
  Functional kind                       .... Exchange
  Functional name                       .... Re-regularized SCAN exchange by Furness et al
  Functional family                     .... MGGA
  Functional refs                              
    [ 0] J. W. Furness, A. D. Kaplan, J. Ning, J. P. Perdew, and J. Sun, J. Phys. Chem. Lett. 11, 8208 (2020)
    [ 1] J. W. Furness, A. D. Kaplan, J. Ning, J. P. Perdew, and J. Sun, J. Phys. Chem. Lett. 11, 9248 (2020)
  Functional external parameters         .... 8
 Parameter  0 :         c1 parameter
 Parameter  1 :         c2 parameter
 Parameter  2 :          d parameter
 Parameter  3 :         k1 parameter
 Parameter  4 :       taur parameter
 Parameter  5 :     alphar parameter
 Parameter  6 :        eta parameter
 Parameter  7 :        dp2 parameter
  Functional kind                       .... Correlation
  Functional name                       .... Re-regularized SCAN correlation by Furness et al
  Functional family                     .... MGGA
  Functional refs                              
    [ 0] J. W. Furness, A. D. Kaplan, J. Ning, J. P. Perdew, and J. Sun, J. Phys. Chem. Lett. 11, 8208 (2020)
    [ 1] J. W. Furness, A. D. Kaplan, J. Ning, J. P. Perdew, and J. Sun, J. Phys. Chem. Lett. 11, 9248 (2020)
  Functional external parameters         .... 0
 Gradients option       PostSCFGGA      .... off
   Density functional embedding theory  .... OFF
 RI-approximation to the Coulomb term is turned on
   Number of AuxJ basis functions       .... 156


General Settings:
 Integral files         IntName         .... /home/wontleave/calc/autoopt/methylBr_F/run.optTS.r2scan-3c
 Hartree-Fock type      HFTyp           .... RHF
 Total Charge           Charge          ....   -1
 Multiplicity           Mult            ....    1
 Number of Electrons    NEL             ....   54
 Basis Dimension        Dim             ....   94
 Nuclear Repulsion      ENuc            ....    139.2078479394 Eh

Convergence Acceleration:
 DIIS                   CNVDIIS         .... on
   Start iteration      DIISMaxIt       ....    12
   Startup error        DIISStart       ....  0.200000
   # of expansion vecs  DIISMaxEq       ....     5
   Bias factor          DIISBfac        ....   1.050
   Max. coefficient     DIISMaxC        ....  10.000
 Trust-Rad. Augm. Hess. CNVTRAH         .... auto
   Auto Start mean grad. ratio tolernc. ....  1.125000
   Auto Start start iteration           ....    20
   Auto Start num. interpolation iter.  ....    10
   Max. Number of Micro iterations      ....    16
   Max. Number of Macro iterations      .... Maxiter - #DIIS iter
   Number of Davidson start vectors     ....     2
   Converg. threshold I  (grad. norm)   ....   2.000e-06
   Converg. threshold II (energy diff.) ....   1.000e-09
   Grad. Scal. Fac. for Micro threshold ....   0.100
   Minimum threshold for Micro iter.    ....   0.010
   NR start threshold (gradient norm)   ....   0.001
   Initial trust radius                 ....   0.400
   Minimum AH scaling param. (alpha)    ....   1.000
   Maximum AH scaling param. (alpha)    .... 1000.000
   Orbital update algorithm             .... Taylor
   White noise on init. David. guess    .... on
   Maximum white noise                  ....   0.010
   Quad. conv. algorithm                .... NR
   COSX micro iterations for RIJONX calc.... off
 SOSCF                  CNVSOSCF        .... on
   Start iteration      SOSCFMaxIt      ....   150
   Startup grad/error   SOSCFStart      ....  0.003300
 Level Shifting         CNVShift        .... on
   Level shift para.    LevelShift      ....    0.2500
   Turn off err/grad.   ShiftErr        ....    0.0010
 Zerner damping         CNVZerner       .... off
 Static damping         CNVDamp         .... on
   Fraction old density DampFac         ....    0.7000
   Max. Damping (<1)    DampMax         ....    0.9800
   Min. Damping (>=0)   DampMin         ....    0.0000
   Turn off err/grad.   DampErr         ....    0.1000
 Fernandez-Rico         CNVRico         .... off

SCF Procedure:
 Maximum # iterations   MaxIter         ....   125
 SCF integral mode      SCFMode         .... Direct
   Integral package                     .... SHARK and LIBINT hybrid scheme
 Reset frequency        DirectResetFreq ....    20
 Integral Threshold     Thresh          ....  1.000e-12 Eh
 Primitive CutOff       TCut            ....  1.000e-14 Eh

Convergence Tolerance:
 Convergence Check Mode ConvCheckMode   .... Total+1el-Energy
 Convergence forced     ConvForced      .... 0
 Energy Change          TolE            ....  1.000e-09 Eh
 1-El. energy change                    ....  1.000e-06 Eh
 Orbital Gradient       TolG            ....  2.000e-06
 Orbital Rotation angle TolX            ....  2.000e-06
 DIIS Error             TolErr          ....  1.000e-08


Diagonalization of the overlap matrix:
Smallest eigenvalue                        ... 6.655e-03
Time for diagonalization                   ...    0.001 sec
Threshold for overlap eigenvalues          ... 1.000e-08
Number of eigenvalues below threshold      ... 0
Time for construction of square roots      ...    0.001 sec
Total time needed                          ...    0.002 sec

Time for model grid setup =    0.031 sec

------------------------------
INITIAL GUESS: MODEL POTENTIAL
------------------------------
Loading Hartree-Fock densities                     ... done
Calculating cut-offs                               ... done
Initializing the effective Hamiltonian             ... done
Setting up the integral package (SHARK)            ... done
Starting the Coulomb interaction                   ... done (   0.0 sec)
Reading the grid                                   ... done
Mapping shells                                     ... done
Starting the XC term evaluation                    ... done (   0.0 sec)
  promolecular density results
     # of electrons  =     52.998296689
     EX              =   -105.161470774
     EC              =     -2.290235252
     EX+EC           =   -107.451706026
Transforming the Hamiltonian                       ... done (   0.0 sec)
Diagonalizing the Hamiltonian                      ... done (   0.0 sec)
Back transforming the eigenvectors                 ... done (   0.0 sec)
Now organizing SCF variables                       ... done
                      ------------------
                      INITIAL GUESS DONE (   0.0 sec)
                      ------------------
-------------------
DFT GRID GENERATION
-------------------

General Integration Accuracy     IntAcc      ... 4.388
Radial Grid Type                 RadialGrid  ... OptM3 with GC (2021)
Angular Grid (max. ang.)         AngularGrid ... 4 (Lebedev-302)
Angular grid pruning method      GridPruning ... 4 (adaptive)
Weight generation scheme         WeightScheme... Becke
Basis function cutoff            BFCut       ... 1.0000e-12
Integration weight cutoff        WCut        ... 1.0000e-14
Angular grids for H and He will be reduced by one unit
Partially contracted basis set               ... off
Rotationally invariant grid construction     ... off

Total number of grid points                  ...    33381
Total number of batches                      ...      526
Average number of points per batch           ...       63
Average number of grid points per atom       ...     5564
Time for grid setup =    0.154 sec

--------------
SCF ITERATIONS
--------------
ITER       Energy         Delta-E        Max-DP      RMS-DP      [F,P]     Damp
               ***  Starting incremental Fock matrix formation  ***
  0  -2713.7214437795   0.000000000000 0.07483978  0.00356327  0.3856377 0.7000
  1  -2713.8147553890  -0.093311609439 0.04028425  0.00239151  0.1056652 0.7000
                               ***Turning on DIIS***
  2  -2713.8395177113  -0.024762322379 0.08991698  0.00368303  0.0319615 0.0000
  3  -2713.8906551362  -0.051137424876 0.02719447  0.00177271  0.0623265 0.0000
  4  -2713.9001561233  -0.009500987072 0.01371620  0.00066020  0.0432896 0.0000
  5  -2713.9024061859  -0.002250062610 0.01233855  0.00034259  0.0057753 0.0000
                      *** Initiating the SOSCF procedure ***
                           *** Shutting down DIIS ***
                      *** Re-Reading the Fockian *** 
                      *** Removing any level shift *** 
ITER      Energy       Delta-E        Grad      Rot      Max-DP    RMS-DP
  6  -2713.90260113  -0.0001949480  0.001004  0.001004  0.003007  0.000125
               *** Restarting incremental Fock matrix formation ***
  7  -2713.90263284  -0.0000317015  0.000696  0.005966  0.004313  0.000182
  8  -2713.90263551  -0.0000026772  0.001011  0.001172  0.001191  0.000065
  9  -2713.90263977  -0.0000042592  0.000764  0.001032  0.001292  0.000059
 10  -2713.90264263  -0.0000028537  0.000341  0.000650  0.000439  0.000020
 11  -2713.90264332  -0.0000006982  0.000239  0.000403  0.000341  0.000016
 12  -2713.90264358  -0.0000002545  0.000156  0.000162  0.000286  0.000008
 13  -2713.90264370  -0.0000001186  0.000056  0.000075  0.000082  0.000003
 14  -2713.90264371  -0.0000000127  0.000019  0.000056  0.000033  0.000002
 15  -2713.90264371  -0.0000000034  0.000007  0.000007  0.000011  0.000000
 16  -2713.90264371  -0.0000000003  0.000002  0.000003  0.000003  0.000000
                  ***Gradient check signals convergence***
              ***Rediagonalizing the Fockian in SOSCF/NRSCF***

               *****************************************************
               *                     SUCCESS                       *
               *           SCF CONVERGED AFTER  17 CYCLES          *
               *****************************************************


----------------
TOTAL SCF ENERGY
----------------

Total Energy       :        -2713.90264371 Eh          -73849.04535 eV

Components:
Nuclear Repulsion  :          139.20784794 Eh            3788.03812 eV
Electronic Energy  :        -2853.11049165 Eh          -77637.08347 eV
One Electron Energy:        -4064.00203731 Eh         -110587.11758 eV
Two Electron Energy:         1210.89154566 Eh           32950.03410 eV

Virial components:
Potential Energy   :        -5423.88301729 Eh         -147591.36030 eV
Kinetic Energy     :         2709.98037358 Eh           73742.31495 eV
Virial Ratio       :            2.00144734


DFT components:
N(Alpha)           :       26.999993511837 electrons
N(Beta)            :       26.999993511837 electrons
N(Total)           :       53.999987023675 electrons
E(X)               :     -106.134579199890 Eh       
E(C)               :       -2.324622726194 Eh       
E(XC)              :     -108.459201926084 Eh       
DFET-embed. en.    :        0.000000000000 Eh       

---------------
SCF CONVERGENCE
---------------

  Last Energy change         ...    2.2737e-12  Tolerance :   1.0000e-09
  Last MAX-Density change    ...    6.5409e-07  Tolerance :   1.0000e-08
  Last RMS-Density change    ...    2.8230e-08  Tolerance :   1.0000e-09
  Last Orbital Gradient      ...    2.4331e-07  Tolerance :   2.0000e-06
  Last Orbital Rotation      ...    9.5361e-07  Tolerance :   2.0000e-06

             **** THE GBW FILE WAS UPDATED (/home/wontleave/calc/autoopt/methylBr_F/run.optTS.r2scan-3c.gbw) ****
             **** DENSITY /home/wontleave/calc/autoopt/methylBr_F/run.optTS.r2scan-3c.scfp WAS UPDATED ****
             **** ENERGY FILE WAS UPDATED (/home/wontleave/calc/autoopt/methylBr_F/run.optTS.r2scan-3c.en.tmp) ****
             **** THE GBW FILE WAS UPDATED (/home/wontleave/calc/autoopt/methylBr_F/run.optTS.r2scan-3c.gbw) ****
             **** DENSITY /home/wontleave/calc/autoopt/methylBr_F/run.optTS.r2scan-3c.scfp WAS UPDATED ****
----------------
ORBITAL ENERGIES
----------------

  NO   OCC          E(Eh)            E(eV) 
   0   2.0000    -482.052223    -13117.3079 
   1   2.0000     -62.124375     -1690.4902 
   2   2.0000     -55.905299     -1521.2605 
   3   2.0000     -55.901975     -1521.1701 
   4   2.0000     -55.901931     -1521.1689 
   5   2.0000     -24.080837      -655.2729 
   6   2.0000      -9.902928      -269.4724 
   7   2.0000      -8.455908      -230.0970 
   8   2.0000      -6.261488      -170.3838 
   9   2.0000      -6.250668      -170.0893 
  10   2.0000      -6.250640      -170.0886 
  11   2.0000      -2.359419       -64.2031 
  12   2.0000      -2.356897       -64.1344 
  13   2.0000      -2.356847       -64.1331 
  14   2.0000      -2.348666       -63.9105 
  15   2.0000      -2.348662       -63.9103 
  16   2.0000      -0.712812       -19.3966 
  17   2.0000      -0.579835       -15.7781 
  18   2.0000      -0.462341       -12.5809 
  19   2.0000      -0.232124        -6.3164 
  20   2.0000      -0.214276        -5.8307 
  21   2.0000      -0.180138        -4.9018 
  22   2.0000      -0.099184        -2.6989 
  23   2.0000      -0.099117        -2.6971 
  24   2.0000       0.003064         0.0834 
  25   2.0000       0.005565         0.1514 
  26   2.0000       0.006591         0.1794 
  27   0.0000       0.122503         3.3335 
  28   0.0000       0.267828         7.2880 
  29   0.0000       0.336204         9.1486 
  30   0.0000       0.338083         9.1997 
  31   0.0000       0.365790         9.9537 
  32   0.0000       0.370222        10.0742 
  33   0.0000       0.386663        10.5216 
  34   0.0000       0.406164        11.0523 
  35   0.0000       0.429897        11.6981 
  36   0.0000       0.448454        12.2031 
  37   0.0000       0.524550        14.2737 
  38   0.0000       0.620905        16.8957 
  39   0.0000       0.624602        16.9963 
  40   0.0000       0.654487        17.8095 
  41   0.0000       0.676205        18.4005 
  42   0.0000       0.746529        20.3141 
  43   0.0000       0.811412        22.0796 
  44   0.0000       0.858310        23.3558 
  45   0.0000       0.866932        23.5904 
  46   0.0000       0.941124        25.6093 
  47   0.0000       1.016499        27.6603 
  48   0.0000       1.040016        28.3003 
  49   0.0000       1.041859        28.3504 
  50   0.0000       1.056052        28.7366 
  51   0.0000       1.107684        30.1416 
  52   0.0000       1.172478        31.9047 
  53   0.0000       1.189586        32.3703 
  54   0.0000       1.262754        34.3613 
  55   0.0000       1.386315        37.7235 
  56   0.0000       1.466048        39.8932 
  57   0.0000       1.472849        40.0783 
  58   0.0000       1.551006        42.2050 
  59   0.0000       1.575117        42.8611 
  60   0.0000       1.681920        45.7674 
  61   0.0000       1.763729        47.9935 
  62   0.0000       1.790329        48.7173 
  63   0.0000       1.850067        50.3429 
  64   0.0000       1.890959        51.4556 
  65   0.0000       2.047942        55.7273 
  66   0.0000       2.327855        63.3442 
  67   0.0000       2.370335        64.5001 
  68   0.0000       2.445896        66.5562 
  69   0.0000       2.462060        66.9961 
  70   0.0000       2.611704        71.0681 
  71   0.0000       2.740232        74.5655 
  72   0.0000       2.843447        77.3741 
  73   0.0000       2.848312        77.5065 
  74   0.0000       2.919183        79.4350 
  75   0.0000       2.940445        80.0136 
  76   0.0000       2.964107        80.6574 
  77   0.0000       3.009487        81.8923 
  78   0.0000       3.174770        86.3899 
  79   0.0000       3.363146        91.5159 
  80   0.0000       3.539327        96.3100 
  81   0.0000       3.549610        96.5898 
  82   0.0000       3.589939        97.6872 
  83   0.0000       3.641384        99.0871 
  84   0.0000       3.673884        99.9715 
  85   0.0000       3.723490       101.3213 
  86   0.0000       3.724487       101.3484 
  87   0.0000       3.763204       102.4020 
  88   0.0000       3.808263       103.6281 
  89   0.0000       3.835116       104.3588 
  90   0.0000       4.222362       114.8963 
  91   0.0000       7.448903       202.6949 
  92   0.0000      21.948816       597.2576 
  93   0.0000      56.901511      1548.3688 

                    ********************************
                    * MULLIKEN POPULATION ANALYSIS *
                    ********************************

-----------------------
MULLIKEN ATOMIC CHARGES
-----------------------
   0 C :   -0.338206
   1 Br:   -0.409485
   2 H :    0.141835
   3 H :    0.141845
   4 H :    0.269696
   5 F :   -0.805685
Sum of atomic charges:   -1.0000000

--------------------------------
MULLIKEN REDUCED ORBITAL CHARGES
--------------------------------
  0 C s       :     3.324061  s :     3.324061
      pz      :     1.091115  p :     2.991928
      px      :     0.712204
      py      :     1.188608
      dz2     :     0.005724  d :     0.022217
      dxz     :     0.001998
      dyz     :     0.004602
      dx2y2   :     0.006054
      dxy     :     0.003839
  1 Brs       :     7.959917  s :     7.959917
      pz      :     5.994649  p :    17.416805
      px      :     5.453038
      py      :     5.969118
      dz2     :     2.004480  d :    10.032762
      dxz     :     2.006911
      dyz     :     2.000510
      dx2y2   :     2.012976
      dxy     :     2.007884
  2 H s       :     0.839486  s :     0.839486
      pz      :     0.006549  p :     0.018680
      px      :     0.003345
      py      :     0.008786
  3 H s       :     0.839477  s :     0.839477
      pz      :     0.010968  p :     0.018678
      px      :     0.003420
      py      :     0.004290
  4 H s       :     0.706216  s :     0.706216
      pz      :     0.003747  p :     0.024088
      px      :     0.012936
      py      :     0.007405
  5 F s       :     3.989503  s :     3.989503
      pz      :     1.981793  p :     5.816662
      px      :     1.877637
      py      :     1.957233
      dz2     :    -0.000074  d :    -0.000480
      dxz     :    -0.000007
      dyz     :    -0.000034
      dx2y2   :    -0.000263
      dxy     :    -0.000101


                     *******************************
                     * LOEWDIN POPULATION ANALYSIS *
                     *******************************

----------------------
LOEWDIN ATOMIC CHARGES
----------------------
   0 C :   -0.486548
   1 Br:   -0.180449
   2 H :    0.143145
   3 H :    0.143148
   4 H :    0.211702
   5 F :   -0.830999

-------------------------------
LOEWDIN REDUCED ORBITAL CHARGES
-------------------------------
  0 C s       :     3.129064  s :     3.129064
      pz      :     1.189632  p :     3.307185
      px      :     0.882997
      py      :     1.234556
      dz2     :     0.013855  d :     0.050298
      dxz     :     0.003920
      dyz     :     0.011434
      dx2y2   :     0.012755
      dxy     :     0.008334
  1 Brs       :     7.778894  s :     7.778894
      pz      :     5.974197  p :    17.355852
      px      :     5.429612
      py      :     5.952043
      dz2     :     2.007037  d :    10.045704
      dxz     :     2.007539
      dyz     :     2.000592
      dx2y2   :     2.020501
      dxy     :     2.010035
  2 H s       :     0.811564  s :     0.811564
      pz      :     0.015827  p :     0.045291
      px      :     0.006743
      py      :     0.022721
  3 H s       :     0.811562  s :     0.811562
      pz      :     0.028063  p :     0.045289
      px      :     0.006942
      py      :     0.010284
  4 H s       :     0.715821  s :     0.715821
      pz      :     0.009329  p :     0.072477
      px      :     0.040972
      py      :     0.022176
  5 F s       :     3.971983  s :     3.971983
      pz      :     1.985874  p :     5.836280
      px      :     1.884009
      py      :     1.966396
      dz2     :     0.005076  d :     0.022736
      dxz     :     0.001027
      dyz     :     0.000137
      dx2y2   :     0.014922
      dxy     :     0.001575


                      *****************************
                      * MAYER POPULATION ANALYSIS *
                      *****************************

  NA   - Mulliken gross atomic population
  ZA   - Total nuclear charge
  QA   - Mulliken gross atomic charge
  VA   - Mayer's total valence
  BVA  - Mayer's bonded valence
  FA   - Mayer's free valence

  ATOM       NA         ZA         QA         VA         BVA        FA
  0 C      6.3382     6.0000    -0.3382     3.7362     3.7362    -0.0000
  1 Br    35.4095    35.0000    -0.4095     0.8236     0.8236     0.0000
  2 H      0.8582     1.0000     0.1418     0.9600     0.9600     0.0000
  3 H      0.8582     1.0000     0.1418     0.9600     0.9600     0.0000
  4 H      0.7303     1.0000     0.2697     0.9480     0.9480    -0.0000
  5 F      9.8057     9.0000    -0.8057     0.3023     0.3023    -0.0000

  Mayer bond orders larger than 0.100000
B(  0-C ,  1-Br) :   0.7546 B(  0-C ,  2-H ) :   0.9670 B(  0-C ,  3-H ) :   0.9670 
B(  0-C ,  4-H ) :   0.8726 B(  0-C ,  5-F ) :   0.1749 

-------
TIMINGS
-------

Total SCF time: 0 days 0 hours 0 min 1 sec 

Total time                  ....       1.271 sec
Sum of individual times     ....       1.197 sec  ( 94.1%)

Fock matrix formation       ....       0.939 sec  ( 73.9%)
  Split-RI-J                ....       0.147 sec  ( 15.7% of F)
  XC integration            ....       0.774 sec  ( 82.4% of F)
    Basis function eval.    ....       0.139 sec  ( 18.0% of XC)
    Density eval.           ....       0.185 sec  ( 23.9% of XC)
    XC-Functional eval.     ....       0.232 sec  ( 30.0% of XC)
    XC-Potential eval.      ....       0.160 sec  ( 20.7% of XC)
Diagonalization             ....       0.015 sec  (  1.2%)
Density matrix formation    ....       0.002 sec  (  0.2%)
Population analysis         ....       0.003 sec  (  0.2%)
Initial guess               ....       0.014 sec  (  1.1%)
Orbital Transformation      ....       0.000 sec  (  0.0%)
Orbital Orthonormalization  ....       0.000 sec  (  0.0%)
DIIS solution               ....       0.017 sec  (  1.3%)
SOSCF solution              ....       0.022 sec  (  1.7%)
Grid generation             ....       0.185 sec  ( 14.6%)

Maximum memory used throughout the entire SCF-calculation: 12.7 MB


-------------------------------------------------------------------------------
                          DFT DISPERSION CORRECTION                            
                                                                               
                                 DFTD4 V2.5                                    
-------------------------------------------------------------------------------
The R2SCAN3C composite method is recognized
Using three-body term ABC
Active option DFTDOPT                   ...         5   

Starting D4
-------------------------   ----------------
Dispersion correction           -0.000852458
-------------------------   ----------------

------------------   -----------------
gCP correction             0.004146184
------------------   -----------------

-------------------------   --------------------
FINAL SINGLE POINT ENERGY     -2713.899349987342
-------------------------   --------------------



           ************************************************************
           *        Program running with 8 parallel MPI-processes     *
           *              working on a common directory               *
           ************************************************************
------------------------------------------------------------------------------
                         ORCA SCF GRADIENT CALCULATION
------------------------------------------------------------------------------

Gradient of the Kohn-Sham DFT energy:
Kohn-Sham wavefunction type      ... RKS
Hartree-Fock exchange scaling    ...    0.000
Number of operators              ...    1
Number of atoms                  ...    6
Basis set dimensions             ...   94
Integral neglect threshold       ... 1.0e-12
Integral primitive cutoff        ... 1.0e-14
SHARK Integral package           ... ON

Nuc. rep. gradient       (SHARK) ... done (  0.0 sec)
HCore & Overlap gradient (SHARK) ... done (  0.0 sec)
RI-J gradient            (SHARK) ... done (  0.2 sec)
Exchange-correlation gradient    ... done
Dispersion correction            ... Starting D4
Starting D4


------------------- 
Dispersion Gradient 
------------------- 
   1  :    0.000000092   -0.000004431   -0.000001657
   2  :    0.000050945    0.000001985   -0.000000028
   3  :    0.000000645   -0.000003294    0.000001801
   4  :    0.000000563   -0.000001301   -0.000003537
   5  :   -0.000009634    0.000002575    0.000001108
   6  :   -0.000035859    0.000006560    0.000002993

  |G| =    0.000129009

Starting D4
Starting D4
Starting D4
Starting D4
Starting D4
Starting D4
done
gCP correction                   ... done

------------------
CARTESIAN GRADIENT
------------------

   1   C   :    0.000001673    0.000000942    0.000000211
   2   Br  :    0.000000187    0.000008951   -0.000005180
   3   H   :    0.000005994    0.000002802    0.000003568
   4   H   :    0.000000421   -0.000003367    0.000001348
   5   H   :   -0.000000969   -0.000000360   -0.000001533
   6   F   :   -0.000000557   -0.000006874    0.000002267

Difference to translation invariance:
           :    0.0000067505    0.0000020933    0.0000006799

Difference to rotation invariance:
           :   -0.0000185625    0.0000368364    0.0000785994

Norm of the cartesian gradient     ...    0.0000153840
RMS gradient                       ...    0.0000036260
MAX gradient                       ...    0.0000089506

-------
TIMINGS
-------

Total SCF gradient time            ...        0.343 sec

One electron gradient       ....       0.005 sec  (  1.4%)
RI-J Coulomb gradient       ....       0.151 sec  ( 44.2%)
XC gradient                 ....       0.095 sec  ( 27.8%)

Maximum memory used throughout the entire SCFGRAD-calculation: 26.3 MB


           ************************************************************
           *        Program running with 8 parallel MPI-processes     *
           *              working on a common directory               *
           ************************************************************

-------------------------------------------------------------------------------
                               ORCA SCF HESSIAN
-------------------------------------------------------------------------------

                   --------- SHARK INITIALIZATION DONE ---------

Hessian of the Kohn-Sham DFT energy:
Kohn-Sham wavefunction type                      ... RKS
Hartree-Fock exchange scaling                    ...    0.000
Number of operators                              ...    1
Number of atoms                                  ...    6
Basis set dimensions                             ...   94
Integral neglect threshold                       ... 1.0e-12
Integral primitive cutoff                        ... 1.0e-14

Setting up DFT Hessian calculations              ... 

HESS GRID
---------

General Integration Accuracy     IntAcc      ... 4.629
Radial Grid Type                 RadialGrid  ... OptM3 with GC (2021)
Angular Grid (max. ang.)         AngularGrid ... 5 (Lebedev-434)
Angular grid pruning method      GridPruning ... 4 (adaptive)
Weight generation scheme         WeightScheme... Becke
Basis function cutoff            BFCut       ... 1.0000e-12
Integration weight cutoff        WCut        ... 1.0000e-14
Angular grids for H and He will be reduced by one unit
Partially contracted basis set               ... off
Rotationally invariant grid construction     ... off

Total number of grid points                  ...    52771
Total number of batches                      ...      827
Average number of points per batch           ...       63
Average number of grid points per atom       ...     8795

Building densities                               ... done   (      0.0 sec)
Calculating rho(r) on the grid                   ... done   (      0.0 sec)
Building xc-kernel on the grid                   ... done   (      0.1 sec)
                                                     done   (      0.5 sec)

Nuclear repulsion Hessian  (SHARK)               ... done   (      0.0 sec)

----------------------------------------------
Forming right-hand sides of CP-SCF equations     ...
----------------------------------------------
One electron integral derivatives  (SHARK)       ... done   (      0.0 sec)
Transforming the overlap derivative matrices     ... done   (      0.0 sec)
Making the Q(x) pseudodensities                  ... done   (      0.0 sec)
Adding the E*S(x)*S(y) terms to the Hessian      ... done   (      0.0 sec)
Calculating energy weighted overlap derivatives  ... done   (      0.0 sec)
Two electron integral derivatives (SHARK-RI)     ... done   (      0.2 sec)
Exchange-correlation integral derivatives        ... done   (      1.7 sec)
tr(F(y)Q(x)) contribution to the Hessian         ... done   (      0.0 sec)
Response fock operator R(S(x)) (SHARK-RI)        ... done   (      0.2 sec)
XC Response fock operator R(S(x))                ... done   (      0.6 sec)
tr(F(y)S(x)) contribution to the Hessian         ... done   (      0.0 sec)
Transforming and finalizing RHSs                 ... done   (      0.0 sec)

----------------------------------------------
Solving the CP-SCF equations (RI)                ...
----------------------------------------------
     CP-SCF ITERATION   0:   3.4711e-01 (   0.1 sec   0/ 18 done)
     CP-SCF ITERATION   1:   3.2408e-02 (   0.1 sec   0/ 18 done)
     CP-SCF ITERATION   2:   1.0288e-02 (   0.1 sec   0/ 18 done)
     CP-SCF ITERATION   3:   2.8602e-03 (   0.1 sec   0/ 18 done)
     CP-SCF ITERATION   4:   7.0589e-04 (   0.1 sec   0/ 18 done)
     CP-SCF ITERATION   5:   1.7462e-04 (   0.1 sec   4/ 18 done)
     CP-SCF ITERATION   6:   3.3791e-05 (   0.1 sec  16/ 18 done)
     CP-SCF ITERATION   7:   5.9027e-06 (   0.0 sec  18/ 18 done)
                    *** THE CP-SCF HAS CONVERGED ***

                                                 ... done   (      1.0 sec)
Forming perturbed density Hessian contributions  ... done   (      0.0 sec)
2nd integral derivative contribs (SHARK-RI)      ... done   (      0.3 sec)
Exchange-correlation Hessian                     ... done   (      1.1 sec)
Dispersion correction in the Hessian             ... Starting D4
Starting D4
Starting D4
Starting D4


------------------- 
Dispersion Gradient 
------------------- 
   1  :   -0.000000037   -0.000004415   -0.000001651
   2  :    0.000050780    0.000001955   -0.000000037
   3  :    0.000000650   -0.000003299    0.000001804
   4  :    0.000000567   -0.000001304   -0.000003545
   5  :   -0.000009657    0.000002621    0.000001125
   6  :   -0.000035869    0.000006556    0.000002992

  |G| =    0.000128865

Starting D4
Starting D4
Starting D4
Starting D4
Starting D4
Starting D4
Starting D4
Starting D4
Starting D4


------------------- 
Dispersion Gradient 
------------------- 
   1  :    0.000000222   -0.000004446   -0.000001663
   2  :    0.000051113    0.000002017   -0.000000018
   3  :    0.000000640   -0.000003290    0.000001798
   4  :    0.000000558   -0.000001299   -0.000003530
   5  :   -0.000009613    0.000002530    0.000001090
   6  :   -0.000035851    0.000006564    0.000002995

  |G| =    0.000129237

Starting D4
Starting D4
Starting D4
Starting D4
Starting D4
Starting D4
Starting D4
Starting D4
Starting D4
Starting D4
Starting D4


------------------- 
Dispersion Gradient 
------------------- 
   1  :    0.000000094   -0.000004456   -0.000001621
   2  :    0.000050956    0.000001989   -0.000000031
   3  :    0.000000635   -0.000003340    0.000001833
   4  :    0.000000563   -0.000001305   -0.000003538
   5  :   -0.000009637    0.000002578    0.000001106
   6  :   -0.000035861    0.000006561    0.000002991

  |G| =    0.000129096

Starting D4
Starting D4
Starting D4
Starting D4
Starting D4
Starting D4
Starting D4
Starting D4


------------------- 
Dispersion Gradient 
------------------- 
   1  :    0.000000089   -0.000004407   -0.000001692
   2  :    0.000050934    0.000001981   -0.000000024
   3  :    0.000000655   -0.000003250    0.000001770
   4  :    0.000000563   -0.000001298   -0.000003537
   5  :   -0.000009631    0.000002572    0.000001110
   6  :   -0.000035858    0.000006559    0.000002995

  |G| =    0.000128925

Starting D4
Starting D4


------------------- 
Dispersion Gradient 
------------------- 
   1  :    0.000000088   -0.000004441   -0.000001657
   2  :    0.000050942    0.000001968   -0.000000028
   3  :    0.000000654   -0.000003303    0.000001802
   4  :    0.000000568   -0.000001306   -0.000003540
   5  :   -0.000009632    0.000002584    0.000001107
   6  :   -0.000035871    0.000006590    0.000002995

  |G| =    0.000129076

Starting D4
Starting D4


------------------- 
Dispersion Gradient 
------------------- 
   1  :    0.000000095   -0.000004421   -0.000001657
   2  :    0.000050947    0.000002002   -0.000000028
   3  :    0.000000636   -0.000003286    0.000001800
   4  :    0.000000557   -0.000001297   -0.000003535
   5  :   -0.000009637    0.000002566    0.000001108
   6  :   -0.000035848    0.000006530    0.000002992

  |G| =    0.000128943

done   (      0.2 sec)
gCP correction in the Hessian                    ... done   (      0.0 sec)
Dipole derivatives                               ... (center of mass: -1.551395, -0.324899  0.179934)done   (      0.1 sec)

Total SCF Hessian time: 0 days 0 hours 0 min 6 sec 

Writing the Hessian file to the disk             ... done


Maximum memory used throughout the entire SCFHESS-calculation: 62.1 MB

-----------------------
VIBRATIONAL FREQUENCIES
-----------------------

Scaling factor for frequencies =  1.000000000  (already applied!)

   0:         0.00 cm**-1
   1:         0.00 cm**-1
   2:         0.00 cm**-1
   3:         0.00 cm**-1
   4:         0.00 cm**-1
   5:         0.00 cm**-1
   6:      -151.32 cm**-1 ***imaginary mode***
   7:       194.84 cm**-1
   8:       215.93 cm**-1
   9:       415.16 cm**-1
  10:       675.08 cm**-1
  11:       932.31 cm**-1
  12:      1194.96 cm**-1
  13:      1421.65 cm**-1
  14:      1446.38 cm**-1
  15:      2955.06 cm**-1
  16:      3157.61 cm**-1
  17:      3222.89 cm**-1


------------
NORMAL MODES
------------

These modes are the Cartesian displacements weighted by the diagonal matrix
M(i,i)=1/sqrt(m[i]) where m[i] is the mass of the displaced atom
Thus, these vectors are normalized but *not* orthogonal

                  0          1          2          3          4          5    
      0       0.000000   0.000000   0.000000   0.000000   0.000000   0.000000
      1       0.000000   0.000000   0.000000   0.000000   0.000000   0.000000
      2       0.000000   0.000000   0.000000   0.000000   0.000000   0.000000
      3       0.000000   0.000000   0.000000   0.000000   0.000000   0.000000
      4       0.000000   0.000000   0.000000   0.000000   0.000000   0.000000
      5       0.000000   0.000000   0.000000   0.000000   0.000000   0.000000
      6       0.000000   0.000000   0.000000   0.000000   0.000000   0.000000
      7       0.000000   0.000000   0.000000   0.000000   0.000000   0.000000
      8       0.000000   0.000000   0.000000   0.000000   0.000000   0.000000
      9       0.000000   0.000000   0.000000   0.000000   0.000000   0.000000
     10       0.000000   0.000000   0.000000   0.000000   0.000000   0.000000
     11       0.000000   0.000000   0.000000   0.000000   0.000000   0.000000
     12       0.000000   0.000000   0.000000   0.000000   0.000000   0.000000
     13       0.000000   0.000000   0.000000   0.000000   0.000000   0.000000
     14       0.000000   0.000000   0.000000   0.000000   0.000000   0.000000
     15       0.000000   0.000000   0.000000   0.000000   0.000000   0.000000
     16       0.000000   0.000000   0.000000   0.000000   0.000000   0.000000
     17       0.000000   0.000000   0.000000   0.000000   0.000000   0.000000
                  6          7          8          9         10         11    
      0      -0.123543  -0.002707   0.074880  -0.648162  -0.025314   0.001168
      1       0.307390   0.062919  -0.134343  -0.216831   0.116890  -0.029232
      2       0.117444  -0.167903  -0.045253  -0.071090   0.044079   0.078016
      3       0.034805   0.000807   0.187366   0.093451   0.006429  -0.000094
      4      -0.029764  -0.005506  -0.001276   0.032368  -0.009466   0.002713
      5      -0.011709   0.014571  -0.003837   0.010673  -0.003638  -0.007231
      6      -0.256874  -0.167255   0.186775  -0.387031   0.257530  -0.663529
      7       0.365435   0.410297  -0.172623  -0.208392  -0.015823  -0.114282
      8       0.157241   0.268877  -0.074817  -0.017743  -0.067315  -0.148874
      9      -0.258635   0.170252   0.176043  -0.390104   0.259743   0.659173
     10       0.380064  -0.484117  -0.146751  -0.172056  -0.053515   0.190460
     11       0.128342  -0.070211  -0.057272  -0.112791   0.033505  -0.055178
     12       0.296747  -0.009022  -0.107732  -0.349143  -0.855200  -0.002933
     13       0.522039   0.228584  -0.242669  -0.038251  -0.313945   0.073079
     14       0.192912  -0.610980  -0.067071  -0.008279  -0.104210  -0.195755
     15      -0.056665  -0.001362  -0.848884   0.076517   0.006895   0.000042
     16      -0.136414  -0.024833   0.120123   0.023173  -0.013752  -0.000849
     17      -0.050393   0.066748   0.055316   0.007423  -0.005246   0.002303
                 12         13         14         15         16         17    
      0      -0.087582  -0.006590   0.001134  -0.042180   0.004901   0.001367
      1       0.001192   0.071423  -0.025772   0.037273  -0.079302  -0.033826
      2       0.001916   0.026997   0.068515   0.014544  -0.029526   0.090948
      3      -0.006794   0.000122   0.000011   0.000274  -0.000032  -0.000002
      4      -0.002956   0.000706  -0.000283  -0.000200   0.000173   0.000050
      5      -0.001008   0.000262   0.000755  -0.000080   0.000064  -0.000135
      6       0.643675  -0.043051   0.267188   0.016625   0.061026   0.062628
      7      -0.033336  -0.384473  -0.227724   0.232511   0.513448   0.567689
      8       0.053035  -0.570040  -0.197356  -0.174611  -0.401546  -0.409169
      9       0.642219  -0.033013  -0.270699   0.023684   0.076602  -0.079425
     10       0.016746  -0.662840   0.301843   0.061371   0.124764  -0.161404
     11      -0.079105   0.179355   0.006650   0.283981   0.635917  -0.681135
     12       0.330242   0.152748  -0.012344   0.424194  -0.191517   0.000757
     13       0.202700   0.145180   0.285284  -0.751345   0.297807  -0.009621
     14       0.069930   0.049827  -0.765801  -0.286980   0.114153   0.023926
     15      -0.001805  -0.000416   0.000078   0.000867  -0.000105  -0.000004
     16       0.001803  -0.000261  -0.001587   0.001549  -0.000256   0.000130
     17       0.000701  -0.000086   0.004257   0.000563  -0.000096  -0.000352


-----------
IR SPECTRUM
-----------

 Mode   freq       eps      Int      T**2         TX        TY        TZ
       cm**-1   L/(mol*cm) km/mol    a.u.
----------------------------------------------------------------------------
  7:    194.84   0.000549    2.77  0.000879  ( 0.000692  0.010314 -0.027782)
  8:    215.93   0.014030   70.90  0.020276  ( 0.140019 -0.023588 -0.010669)
  9:    415.16   0.054604  275.94  0.041044  (-0.202558 -0.003278  0.001823)
 10:    675.08   0.017960   90.76  0.008302  (-0.090255  0.011187  0.005569)
 11:    932.31   0.000266    1.35  0.000089  (-0.000047  0.003297 -0.008850)
 12:   1194.96   0.003450   17.44  0.000901  (-0.023983 -0.016996 -0.006085)
 13:   1421.65   0.002655   13.42  0.000583  ( 0.016048 -0.016802 -0.006561)
 14:   1446.38   0.002423   12.24  0.000523  (-0.000335  0.008078 -0.021386)
 15:   2955.06   0.033511  169.35  0.003539  ( 0.055910 -0.018725 -0.007895)
 16:   3157.61   0.007598   38.40  0.000751  (-0.027358 -0.001568 -0.000157)
 17:   3222.89   0.001080    5.46  0.000105  ( 0.000143 -0.003598  0.009573)

* The epsilon (eps) is given for a Dirac delta lineshape.
** The dipole moment derivative (T) already includes vibrational overlap.

The first frequency considered to be a vibration is 7
The total number of vibrations considered is 11


--------------------------
THERMOCHEMISTRY AT 298.15K
--------------------------

Temperature         ... 298.15 K
Pressure            ... 1.00 atm
Total Mass          ... 113.93 AMU

Throughout the following assumptions are being made:
  (1) The electronic state is orbitally nondegenerate
  (2) There are no thermally accessible electronically excited states
  (3) Hindered rotations indicated by low frequency modes are not
      treated as such but are treated as vibrations and this may
      cause some error
  (4) All equations used are the standard statistical mechanics
      equations for an ideal gas
  (5) All vibrations are strictly harmonic

freq.     194.84  E(vib)   ...       0.36 
freq.     215.93  E(vib)   ...       0.34 
freq.     415.16  E(vib)   ...       0.19 
freq.     675.08  E(vib)   ...       0.08 
freq.     932.31  E(vib)   ...       0.03 
freq.    1194.96  E(vib)   ...       0.01 
freq.    1421.65  E(vib)   ...       0.00 
freq.    1446.38  E(vib)   ...       0.00 
freq.    2955.06  E(vib)   ...       0.00 
freq.    3157.61  E(vib)   ...       0.00 
freq.    3222.89  E(vib)   ...       0.00 

------------
INNER ENERGY
------------

The inner energy is: U= E(el) + E(ZPE) + E(vib) + E(rot) + E(trans)
    E(el)   - is the total energy from the electronic structure calculation
              = E(kin-el) + E(nuc-el) + E(el-el) + E(nuc-nuc)
    E(ZPE)  - the the zero temperature vibrational energy from the frequency calculation
    E(vib)  - the the finite temperature correction to E(ZPE) due to population
              of excited vibrational states
    E(rot)  - is the rotational thermal energy
    E(trans)- is the translational thermal energy

Summary of contributions to the inner energy U:
Electronic energy                ...  -2713.89934999 Eh
Zero point energy                ...      0.03606765 Eh      22.63 kcal/mol
Thermal vibrational correction   ...      0.00160093 Eh       1.00 kcal/mol
Thermal rotational correction    ...      0.00141627 Eh       0.89 kcal/mol
Thermal translational correction ...      0.00141627 Eh       0.89 kcal/mol
-----------------------------------------------------------------------
Total thermal energy                  -2713.85884887 Eh


Summary of corrections to the electronic energy:
(perhaps to be used in another calculation)
Total thermal correction                  0.00443347 Eh       2.78 kcal/mol
Non-thermal (ZPE) correction              0.03606765 Eh      22.63 kcal/mol
-----------------------------------------------------------------------
Total correction                          0.04050112 Eh      25.41 kcal/mol


--------
ENTHALPY
--------

The enthalpy is H = U + kB*T
                kB is Boltzmann's constant
Total free energy                 ...  -2713.85884887 Eh 
Thermal Enthalpy correction       ...      0.00094421 Eh       0.59 kcal/mol
-----------------------------------------------------------------------
Total Enthalpy                    ...  -2713.85790466 Eh


Note: Only C1 symmetry has been detected, increase convergence thresholds 
      if your molecule has a higher symmetry. Symmetry factor of 1.0 is   
      used for the rotational entropy correction. 
 

Note: Rotational entropy computed according to Herzberg 
Infrared and Raman Spectra, Chapter V,1, Van Nostrand Reinhold, 1945 
Point Group:  C1, Symmetry Number:   1  
Rotational constants in cm-1:     2.198769     0.051909     0.051216 

Vibrational entropy computed according to the QRRHO of S. Grimme
Chem.Eur.J. 2012 18 9955


-------
ENTROPY
-------

The entropy contributions are T*S = T*(S(el)+S(vib)+S(rot)+S(trans))
     S(el)   - electronic entropy
     S(vib)  - vibrational entropy
     S(rot)  - rotational entropy
     S(trans)- translational entropy
The entropies will be listed as multiplied by the temperature to get
units of energy

Electronic entropy                ...      0.00000000 Eh      0.00 kcal/mol
Vibrational entropy               ...      0.00267182 Eh      1.68 kcal/mol
Rotational entropy                ...      0.01193833 Eh      7.49 kcal/mol
Translational entropy             ...      0.01905598 Eh     11.96 kcal/mol
-----------------------------------------------------------------------
Final entropy term                ...      0.03366613 Eh     21.13 kcal/mol

In case the symmetry of your molecule has not been determined correctly
or in case you have a reason to use a different symmetry number we print 
out the resulting rotational entropy values for sn=1,12 :
 --------------------------------------------------------
|  sn= 1 | S(rot)=       0.01193833 Eh      7.49 kcal/mol|
|  sn= 2 | S(rot)=       0.01128388 Eh      7.08 kcal/mol|
|  sn= 3 | S(rot)=       0.01090104 Eh      6.84 kcal/mol|
|  sn= 4 | S(rot)=       0.01062942 Eh      6.67 kcal/mol|
|  sn= 5 | S(rot)=       0.01041873 Eh      6.54 kcal/mol|
|  sn= 6 | S(rot)=       0.01024659 Eh      6.43 kcal/mol|
|  sn= 7 | S(rot)=       0.01010104 Eh      6.34 kcal/mol|
|  sn= 8 | S(rot)=       0.00997496 Eh      6.26 kcal/mol|
|  sn= 9 | S(rot)=       0.00986376 Eh      6.19 kcal/mol|
|  sn=10 | S(rot)=       0.00976428 Eh      6.13 kcal/mol|
|  sn=11 | S(rot)=       0.00967429 Eh      6.07 kcal/mol|
|  sn=12 | S(rot)=       0.00959213 Eh      6.02 kcal/mol|
 --------------------------------------------------------


-------------------
GIBBS FREE ENERGY
-------------------

The Gibbs free energy is G = H - T*S

Total enthalpy                    ...  -2713.85790466 Eh 
Total entropy correction          ...     -0.03366613 Eh    -21.13 kcal/mol
-----------------------------------------------------------------------
Final Gibbs free energy         ...  -2713.89157079 Eh

For completeness - the Gibbs free energy minus the electronic energy
G-E(el)                           ...      0.00777920 Eh      4.88 kcal/mol

Actual Hessian File stored as /home/wontleave/calc/autoopt/methylBr_F/run.optTS.r2scan-3c.001.hess
------------------------------------------------------------------------------
                         ORCA GEOMETRY RELAXATION STEP
------------------------------------------------------------------------------

Reading the OPT-File                    .... done
Getting information on internals        .... done
Copying old internal coords+grads       .... done
Making the new internal coordinates     .... (new redundants).... done
Validating the new internal coordinates .... (new redundants).... done
Calculating the B-matrix                .... done
Calculating the G,G- and P matrices     .... done
Transforming gradient to internals      .... done
Projecting the internal gradient        .... done
Number of atoms                         ....   6
Number of internal coordinates          ....  16
Current Energy                          .... -2713.899349987 Eh
Current gradient norm                   ....     0.000015384 Eh/bohr
Maximum allowed component of the step   ....  0.300
Current trust radius                    ....  0.150
Evaluating the initial hessian          ....  (read) 
(Reading Exact Hessian)...  
InHessName: /home/wontleave/calc/autoopt/methylBr_F/run.optTS.r2scan-3c.hess	The file </home/wontleave/calc/autoopt/methylBr_F/run.optTS.r2scan-3c.hess> is opened as a .hess file
done
done
Diagonalizing the Hessian               .... done
Dimension of the hessian                .... 16
Lowest eigenvalues of the non projected Hessian:
 -0.008963430 -0.000014246  0.000002389  0.000026335  0.000064662
done
Projecting the Hessian                  .... done
Diagonalizing the Hessian               .... done
Dimension of the hessian                ....  16
Lowest eigenvalues of the Hessian:
 -0.008962485  0.005822182  0.012881257  0.049025024  0.077101481
Hessian has   1 negative eigenvalues
Taking P-RFO step
Searching for lambda that maximizes along the lowest mode
TS mode is mode number   0 with eigenvalue  -0.00896248 and components:
   1.   -0.13581050
   2.    0.01282002
   3.    0.01289307
   4.    0.08446030
   5.    0.40451785
   6.   -0.55823148
   7.    0.00534931
   8.    0.00534345
   9.    0.06602026
  10.   -0.01472209
  11.   -0.01446432
  12.   -0.04427096
  13.    0.69905826
  14.    0.04104590
  15.   -0.04080839
  16.    0.00021717

Lambda that maximizes along the TS mode:       0.00000000
Searching for lambda that minimizes along all other modes
In cycle   1: lambdaN =  -0.00000000   step =   0.00000000
Lambda that minimizes along all other modes:  -0.00000000
The final length of the internal step   ....       0.0000
Converting the step to cartesian space:
 Initial RMS(Int)=    0.0000019719
Transforming coordinates:
 Iter   0:  RMS(Cart)=    0.0000024110 RMS(Int)=    0.0000019719
 Iter   1:  RMS(Cart)=    0.0000000000 RMS(Int)=    0.0000000000
done
Storing new coordinates                 .... done

                                .--------------------.
          ----------------------|Geometry convergence|-------------------------
          Item                value                   Tolerance       Converged
          ---------------------------------------------------------------------
          RMS gradient        0.0000000206            0.0000080000      YES
          MAX gradient        0.0000000506            0.0000300000      YES
          RMS step            0.0000019719            0.0001000000      YES
          MAX step            0.0000060588            0.0002000000      YES
          ........................................................
          Max(Bonds)      0.0000      Max(Angles)    0.00
          Max(Dihed)        0.00      Max(Improp)    0.00
          ---------------------------------------------------------------------

                    ***********************HURRAY********************
                    ***        THE OPTIMIZATION HAS CONVERGED     ***
                    *************************************************


    ---------------------------------------------------------------------------
                         Redundant Internal Coordinates

                          --- Optimized Parameters ---  
                            (Angstroem and degrees)

        Definition                    OldVal   dE/dq     Step     FinalVal  comp.(TS mode)
    ----------------------------------------------------------------------------
     1. B(Br  1,C   0)                2.0816 -0.000000 -0.0000    2.0816   
     2. B(H   2,C   0)                1.0865  0.000000  0.0000    1.0865   
     3. B(H   3,C   0)                1.0865  0.000000  0.0000    1.0865   
     4. B(H   4,C   0)                1.1028  0.000000  0.0000    1.1028   
     5. B(F   5,C   0)                2.5185  0.000000  0.0000    2.5185          0.40
     6. B(F   5,H   4)                1.7495 -0.000000 -0.0000    1.7495          0.56
     7. A(Br  1,C   0,H   3)          103.34  0.000000   -0.00    103.34   
     8. A(Br  1,C   0,H   2)          103.33  0.000000   -0.00    103.33   
     9. A(Br  1,C   0,H   4)          114.27  0.000000    0.00    114.27   
    10. A(H   2,C   0,H   4)          111.62 -0.000000    0.00    111.62   
    11. A(H   3,C   0,H   4)          111.62 -0.000000   -0.00    111.62   
    12. A(H   2,C   0,H   3)          112.17  0.000000   -0.00    112.17   
    13. A(C   0,H   4,F   5)          122.37  0.000000    0.00    122.37          0.70
    14. D(F   5,H   4,C   0,H   2)    -63.21  0.000000   -0.00    -63.21   
    15. D(F   5,H   4,C   0,H   3)     63.21 -0.000000   -0.00     63.21   
    16. D(F   5,H   4,C   0,Br  1)   -179.99  0.000000   -0.00   -179.99   
    ----------------------------------------------------------------------------
                 *******************************************************
                 *** FINAL ENERGY EVALUATION AT THE STATIONARY POINT ***
                 ***               (AFTER    1 CYCLES)               ***
                 *******************************************************
---------------------------------
CARTESIAN COORDINATES (ANGSTROEM)
---------------------------------
  C     -1.840571   -0.579774   -0.041784
  Br     0.195051   -0.163047    0.083173
  H     -1.957650   -1.450573    0.597303
  H     -1.983285   -0.819728   -1.091784
  H     -2.493468    0.249567    0.277863
  F     -4.238676    0.128425    0.259138

----------------------------
CARTESIAN COORDINATES (A.U.)
----------------------------
  NO LB      ZA    FRAG     MASS         X           Y           Z
   0 C     6.0000    0    12.011   -3.478175   -1.095614   -0.078960
   1 Br   35.0000    0    79.900    0.368592   -0.308115    0.157174
   2 H     1.0000    0     1.008   -3.699422   -2.741186    1.128740
   3 H     1.0000    0     1.008   -3.747866   -1.549062   -2.063173
   4 H     1.0000    0     1.008   -4.711972    0.471614    0.525085
   5 F     9.0000    0    18.998   -8.009938    0.242688    0.489700

--------------------------------
INTERNAL COORDINATES (ANGSTROEM)
--------------------------------
 C      0   0   0     0.000000000000     0.00000000     0.00000000
 Br     1   0   0     2.081593044363     0.00000000     0.00000000
 H      1   2   0     1.086476354423   103.32798648     0.00000000
 H      1   2   3     1.086483566517   103.33719103   242.95714165
 H      1   2   3     1.102840050922   114.26720648   121.47593149
 F      5   1   2     1.749507985517   122.37009291   180.00721199

---------------------------
INTERNAL COORDINATES (A.U.)
---------------------------
 C      0   0   0     0.000000000000     0.00000000     0.00000000
 Br     1   0   0     3.933640776122     0.00000000     0.00000000
 H      1   2   0     2.053142760841   103.32798648     0.00000000
 H      1   2   3     2.053156389723   103.33719103   242.95714165
 H      1   2   3     2.084065665762   114.26720648   121.47593149
 F      5   1   2     3.306090961735   122.37009291   180.00721199

---------------------
BASIS SET INFORMATION
---------------------
There are 4 groups of distinct atoms

 Group   1 Type C   : 11s6p1d contracted to 5s3p1d pattern {62111/411/1}
 Group   2 Type Br  : 17s13p7d contracted to 6s5p3d pattern {842111/64111/511}
 Group   3 Type H   : 4s1p contracted to 2s1p pattern {31/1}
 Group   4 Type F   : 11s6p2d contracted to 5s3p2d pattern {62111/411/11}

Atom   0C    basis set group =>   1
Atom   1Br   basis set group =>   2
Atom   2H    basis set group =>   3
Atom   3H    basis set group =>   3
Atom   4H    basis set group =>   3
Atom   5F    basis set group =>   4
---------------------------------
AUXILIARY/J BASIS SET INFORMATION
---------------------------------
There are 4 groups of distinct atoms

 Group   1 Type C   : 8s3p3d contracted to 6s3p3d pattern {311111/111/111}
 Group   2 Type Br  : 19s5p5d3f1g contracted to 8s4p3d2f1g pattern {121111111/2111/311/21/1}
 Group   3 Type H   : 5s2p1d contracted to 3s1p1d pattern {311/2/1}
 Group   4 Type F   : 8s3p4d contracted to 6s3p4d pattern {311111/111/1111}

Atom   0C    basis set group =>   1
Atom   1Br   basis set group =>   2
Atom   2H    basis set group =>   3
Atom   3H    basis set group =>   3
Atom   4H    basis set group =>   3
Atom   5F    basis set group =>   4


           ************************************************************
           *        Program running with 8 parallel MPI-processes     *
           *              working on a common directory               *
           ************************************************************
------------------------------------------------------------------------------
                           ORCA GTO INTEGRAL CALCULATION
                           -- RI-GTO INTEGRALS CHOSEN --
------------------------------------------------------------------------------
------------------------------------------------------------------------------
                   ___                                                        
                  /   \      - P O W E R E D   B Y -                         
                 /     \                                                     
                 |  |  |   _    _      __       _____    __    __             
                 |  |  |  | |  | |    /  \     |  _  \  |  |  /  |          
[...]
   Level shift para.    LevelShift      ....    0.2500
   Turn off err/grad.   ShiftErr        ....    0.0010
 Zerner damping         CNVZerner       .... off
 Static damping         CNVDamp         .... on
   Fraction old density DampFac         ....    0.7000
   Max. Damping (<1)    DampMax         ....    0.9800
   Min. Damping (>=0)   DampMin         ....    0.0000
   Turn off err/grad.   DampErr         ....    0.1000
 Fernandez-Rico         CNVRico         .... off

SCF Procedure:
 Maximum # iterations   MaxIter         ....   125
 SCF integral mode      SCFMode         .... Direct
   Integral package                     .... SHARK and LIBINT hybrid scheme
 Reset frequency        DirectResetFreq ....    20
 Integral Threshold     Thresh          ....  1.000e-12 Eh
 Primitive CutOff       TCut            ....  1.000e-14 Eh

Convergence Tolerance:
 Convergence Check Mode ConvCheckMode   .... Total+1el-Energy
 Convergence forced     ConvForced      .... 0
 Energy Change          TolE            ....  1.000e-09 Eh
 1-El. energy change                    ....  1.000e-06 Eh
 Orbital Gradient       TolG            ....  2.000e-06
 Orbital Rotation angle TolX            ....  2.000e-06
 DIIS Error             TolErr          ....  1.000e-08


Diagonalization of the overlap matrix:
Smallest eigenvalue                        ... 6.655e-03
Time for diagonalization                   ...    0.001 sec
Threshold for overlap eigenvalues          ... 1.000e-08
Number of eigenvalues below threshold      ... 0
Time for construction of square roots      ...    0.000 sec
Total time needed                          ...    0.002 sec

---------------------
INITIAL GUESS: MOREAD
---------------------
Guess MOs are being read from file: /home/wontleave/calc/autoopt/methylBr_F/run.optTS.r2scan-3c.gbw
Input Geometry matches current geometry (good)
Input basis set matches current basis set (good)
MOs were renormalized
MOs were reorthogonalized (Cholesky)
                      ------------------
                      INITIAL GUESS DONE (   0.0 sec)
                      ------------------
-------------------
DFT GRID GENERATION
-------------------

General Integration Accuracy     IntAcc      ... 4.388
Radial Grid Type                 RadialGrid  ... OptM3 with GC (2021)
Angular Grid (max. ang.)         AngularGrid ... 4 (Lebedev-302)
Angular grid pruning method      GridPruning ... 4 (adaptive)
Weight generation scheme         WeightScheme... Becke
Basis function cutoff            BFCut       ... 1.0000e-12
Integration weight cutoff        WCut        ... 1.0000e-14
Angular grids for H and He will be reduced by one unit
Partially contracted basis set               ... off
Rotationally invariant grid construction     ... off

Total number of grid points                  ...    33381
Total number of batches                      ...      526
Average number of points per batch           ...       63
Average number of grid points per atom       ...     5564
Time for grid setup =    0.157 sec

--------------
SCF ITERATIONS
--------------
ITER       Energy         Delta-E        Max-DP      RMS-DP      [F,P]     Damp
               ***  Starting incremental Fock matrix formation  ***
                      *** Initiating the SOSCF procedure ***
                      *** Re-Reading the Fockian *** 
                      *** Removing any level shift *** 
ITER      Energy       Delta-E        Grad      Rot      Max-DP    RMS-DP
  0  -2713.90264372 -2713.9026437196  0.000000  0.000000  0.000000  0.000000
               *** Restarting incremental Fock matrix formation ***
                  ***Gradient check signals convergence***
              ***Rediagonalizing the Fockian in SOSCF/NRSCF***

               *****************************************************
               *                     SUCCESS                       *
               *           SCF CONVERGED AFTER   1 CYCLES          *
               *****************************************************


----------------
TOTAL SCF ENERGY
----------------

Total Energy       :        -2713.90264372 Eh          -73849.04535 eV

Components:
Nuclear Repulsion  :          139.20786053 Eh            3788.03847 eV
Electronic Energy  :        -2853.11050425 Eh          -77637.08381 eV
One Electron Energy:        -4064.00206227 Eh         -110587.11825 eV
Two Electron Energy:         1210.89155802 Eh           32950.03444 eV

Virial components:
Potential Energy   :        -5423.88301295 Eh         -147591.36018 eV
Kinetic Energy     :         2709.98036923 Eh           73742.31483 eV
Virial Ratio       :            2.00144734


DFT components:
N(Alpha)           :       26.999993512045 electrons
N(Beta)            :       26.999993512045 electrons
N(Total)           :       53.999987024090 electrons
E(X)               :     -106.134578878653 Eh       
E(C)               :       -2.324622742933 Eh       
E(XC)              :     -108.459201621586 Eh       
DFET-embed. en.    :        0.000000000000 Eh       

---------------
SCF CONVERGENCE
---------------

  Last Energy change         ...   -6.3665e-12  Tolerance :   1.0000e-09
  Last MAX-Density change    ...    7.9181e-07  Tolerance :   1.0000e-08
  Last RMS-Density change    ...    3.2446e-08  Tolerance :   1.0000e-09
  Last Orbital Gradient      ...    1.5012e-07  Tolerance :   2.0000e-06
  Last Orbital Rotation      ...    1.2951e-06  Tolerance :   2.0000e-06

             **** THE GBW FILE WAS UPDATED (/home/wontleave/calc/autoopt/methylBr_F/run.optTS.r2scan-3c.gbw) ****
             **** DENSITY /home/wontleave/calc/autoopt/methylBr_F/run.optTS.r2scan-3c.scfp WAS UPDATED ****
             **** ENERGY FILE WAS UPDATED (/home/wontleave/calc/autoopt/methylBr_F/run.optTS.r2scan-3c.en.tmp) ****
             **** THE GBW FILE WAS UPDATED (/home/wontleave/calc/autoopt/methylBr_F/run.optTS.r2scan-3c.gbw) ****
             **** DENSITY /home/wontleave/calc/autoopt/methylBr_F/run.optTS.r2scan-3c.scfp WAS UPDATED ****
----------------
ORBITAL ENERGIES
----------------

  NO   OCC          E(Eh)            E(eV) 
   0   2.0000    -482.052223    -13117.3079 
   1   2.0000     -62.124375     -1690.4902 
   2   2.0000     -55.905299     -1521.2605 
   3   2.0000     -55.901975     -1521.1701 
   4   2.0000     -55.901931     -1521.1689 
   5   2.0000     -24.080838      -655.2729 
   6   2.0000      -9.902928      -269.4724 
   7   2.0000      -8.455908      -230.0970 
   8   2.0000      -6.261488      -170.3838 
   9   2.0000      -6.250668      -170.0893 
  10   2.0000      -6.250640      -170.0886 
  11   2.0000      -2.359419       -64.2030 
  12   2.0000      -2.356897       -64.1344 
  13   2.0000      -2.356847       -64.1331 
  14   2.0000      -2.348666       -63.9105 
  15   2.0000      -2.348662       -63.9103 
  16   2.0000      -0.712813       -19.3966 
  17   2.0000      -0.579835       -15.7781 
  18   2.0000      -0.462341       -12.5809 
  19   2.0000      -0.232124        -6.3164 
  20   2.0000      -0.214276        -5.8307 
  21   2.0000      -0.180138        -4.9018 
  22   2.0000      -0.099184        -2.6989 
  23   2.0000      -0.099117        -2.6971 
  24   2.0000       0.003064         0.0834 
  25   2.0000       0.005565         0.1514 
  26   2.0000       0.006591         0.1793 
  27   0.0000       0.122503         3.3335 
  28   0.0000       0.267828         7.2880 
  29   0.0000       0.336204         9.1486 
  30   0.0000       0.338083         9.1997 
  31   0.0000       0.365790         9.9537 
  32   0.0000       0.370222        10.0743 
  33   0.0000       0.386663        10.5216 
  34   0.0000       0.406164        11.0523 
  35   0.0000       0.429897        11.6981 
  36   0.0000       0.448455        12.2031 
  37   0.0000       0.524550        14.2737 
  38   0.0000       0.620905        16.8957 
  39   0.0000       0.624602        16.9963 
  40   0.0000       0.654487        17.8095 
  41   0.0000       0.676205        18.4005 
  42   0.0000       0.746529        20.3141 
  43   0.0000       0.811412        22.0796 
  44   0.0000       0.858310        23.3558 
  45   0.0000       0.866932        23.5904 
  46   0.0000       0.941124        25.6093 
  47   0.0000       1.016499        27.6603 
  48   0.0000       1.040016        28.3003 
  49   0.0000       1.041859        28.3504 
  50   0.0000       1.056052        28.7366 
  51   0.0000       1.107683        30.1416 
  52   0.0000       1.172479        31.9048 
  53   0.0000       1.189586        32.3703 
  54   0.0000       1.262754        34.3613 
  55   0.0000       1.386316        37.7236 
  56   0.0000       1.466048        39.8932 
  57   0.0000       1.472849        40.0783 
  58   0.0000       1.551006        42.2050 
  59   0.0000       1.575117        42.8611 
  60   0.0000       1.681920        45.7674 
  61   0.0000       1.763729        47.9935 
  62   0.0000       1.790329        48.7173 
  63   0.0000       1.850068        50.3429 
  64   0.0000       1.890958        51.4556 
  65   0.0000       2.047943        55.7274 
  66   0.0000       2.327855        63.3442 
  67   0.0000       2.370335        64.5001 
  68   0.0000       2.445895        66.5562 
  69   0.0000       2.462060        66.9960 
  70   0.0000       2.611704        71.0681 
  71   0.0000       2.740231        74.5655 
  72   0.0000       2.843447        77.3741 
  73   0.0000       2.848313        77.5065 
  74   0.0000       2.919183        79.4350 
  75   0.0000       2.940445        80.0136 
  76   0.0000       2.964107        80.6574 
  77   0.0000       3.009488        81.8923 
  78   0.0000       3.174770        86.3899 
  79   0.0000       3.363146        91.5159 
  80   0.0000       3.539326        96.3100 
  81   0.0000       3.549610        96.5898 
  82   0.0000       3.589939        97.6872 
  83   0.0000       3.641384        99.0871 
  84   0.0000       3.673884        99.9715 
  85   0.0000       3.723489       101.3213 
  86   0.0000       3.724487       101.3484 
  87   0.0000       3.763204       102.4020 
  88   0.0000       3.808263       103.6281 
  89   0.0000       3.835115       104.3588 
  90   0.0000       4.222361       114.8963 
  91   0.0000       7.448903       202.6950 
  92   0.0000      21.948815       597.2576 
  93   0.0000      56.901510      1548.3688 

                    ********************************
                    * MULLIKEN POPULATION ANALYSIS *
                    ********************************

-----------------------
MULLIKEN ATOMIC CHARGES
-----------------------
   0 C :   -0.338206
   1 Br:   -0.409484
   2 H :    0.141835
   3 H :    0.141845
   4 H :    0.269696
   5 F :   -0.805685
Sum of atomic charges:   -1.0000000

--------------------------------
MULLIKEN REDUCED ORBITAL CHARGES
--------------------------------
  0 C s       :     3.324061  s :     3.324061
      pz      :     1.091115  p :     2.991928
      px      :     0.712204
      py      :     1.188608
      dz2     :     0.005724  d :     0.022217
      dxz     :     0.001998
      dyz     :     0.004602
      dx2y2   :     0.006054
      dxy     :     0.003839
  1 Brs       :     7.959918  s :     7.959918
      pz      :     5.994649  p :    17.416805
      px      :     5.453038
      py      :     5.969118
      dz2     :     2.004480  d :    10.032762
      dxz     :     2.006911
      dyz     :     2.000510
      dx2y2   :     2.012976
      dxy     :     2.007884
  2 H s       :     0.839486  s :     0.839486
      pz      :     0.006549  p :     0.018680
      px      :     0.003345
      py      :     0.008786
  3 H s       :     0.839477  s :     0.839477
      pz      :     0.010968  p :     0.018678
      px      :     0.003420
      py      :     0.004290
  4 H s       :     0.706216  s :     0.706216
      pz      :     0.003747  p :     0.024088
      px      :     0.012936
      py      :     0.007405
  5 F s       :     3.989503  s :     3.989503
      pz      :     1.981793  p :     5.816662
      px      :     1.877637
      py      :     1.957233
      dz2     :    -0.000074  d :    -0.000480
      dxz     :    -0.000007
      dyz     :    -0.000034
      dx2y2   :    -0.000263
      dxy     :    -0.000101


                     *******************************
                     * LOEWDIN POPULATION ANALYSIS *
                     *******************************

----------------------
LOEWDIN ATOMIC CHARGES
----------------------
   0 C :   -0.486548
   1 Br:   -0.180449
   2 H :    0.143145
   3 H :    0.143148
   4 H :    0.211702
   5 F :   -0.830999

-------------------------------
LOEWDIN REDUCED ORBITAL CHARGES
-------------------------------
  0 C s       :     3.129065  s :     3.129065
      pz      :     1.189632  p :     3.307185
      px      :     0.882997
      py      :     1.234556
      dz2     :     0.013855  d :     0.050298
      dxz     :     0.003920
      dyz     :     0.011434
      dx2y2   :     0.012755
      dxy     :     0.008334
  1 Brs       :     7.778894  s :     7.778894
      pz      :     5.974197  p :    17.355852
      px      :     5.429612
      py      :     5.952043
      dz2     :     2.007037  d :    10.045704
      dxz     :     2.007539
      dyz     :     2.000592
      dx2y2   :     2.020501
      dxy     :     2.010035
  2 H s       :     0.811564  s :     0.811564
      pz      :     0.015827  p :     0.045291
      px      :     0.006743
      py      :     0.022722
  3 H s       :     0.811562  s :     0.811562
      pz      :     0.028063  p :     0.045289
      px      :     0.006942
      py      :     0.010284
  4 H s       :     0.715820  s :     0.715820
      pz      :     0.009329  p :     0.072478
      px      :     0.040972
      py      :     0.022176
  5 F s       :     3.971983  s :     3.971983
      pz      :     1.985874  p :     5.836280
      px      :     1.884010
      py      :     1.966396
      dz2     :     0.005076  d :     0.022737
      dxz     :     0.001027
      dyz     :     0.000137
      dx2y2   :     0.014922
      dxy     :     0.001575


                      *****************************
                      * MAYER POPULATION ANALYSIS *
                      *****************************

  NA   - Mulliken gross atomic population
  ZA   - Total nuclear charge
  QA   - Mulliken gross atomic charge
  VA   - Mayer's total valence
  BVA  - Mayer's bonded valence
  FA   - Mayer's free valence

  ATOM       NA         ZA         QA         VA         BVA        FA
  0 C      6.3382     6.0000    -0.3382     3.7362     3.7362     0.0000
  1 Br    35.4095    35.0000    -0.4095     0.8236     0.8236    -0.0000
  2 H      0.8582     1.0000     0.1418     0.9600     0.9600    -0.0000
  3 H      0.8582     1.0000     0.1418     0.9600     0.9600    -0.0000
  4 H      0.7303     1.0000     0.2697     0.9480     0.9480    -0.0000
  5 F      9.8057     9.0000    -0.8057     0.3023     0.3023    -0.0000

  Mayer bond orders larger than 0.100000
B(  0-C ,  1-Br) :   0.7546 B(  0-C ,  2-H ) :   0.9670 B(  0-C ,  3-H ) :   0.9670 
B(  0-C ,  4-H ) :   0.8726 B(  0-C ,  5-F ) :   0.1749 

-------
TIMINGS
-------

Total SCF time: 0 days 0 hours 0 min 0 sec 

Total time                  ....       0.335 sec
Sum of individual times     ....       0.271 sec  ( 81.0%)

Fock matrix formation       ....       0.103 sec  ( 30.8%)
  Split-RI-J                ....       0.017 sec  ( 16.3% of F)
  XC integration            ....       0.090 sec  ( 86.9% of F)
    Basis function eval.    ....       0.015 sec  ( 16.4% of XC)
    Density eval.           ....       0.020 sec  ( 22.6% of XC)
    XC-Functional eval.     ....       0.025 sec  ( 27.8% of XC)
    XC-Potential eval.      ....       0.017 sec  ( 18.7% of XC)
Diagonalization             ....       0.002 sec  (  0.6%)
Density matrix formation    ....       0.000 sec  (  0.1%)
Population analysis         ....       0.003 sec  (  0.9%)
Initial guess               ....       0.002 sec  (  0.7%)
Orbital Transformation      ....       0.000 sec  (  0.0%)
Orbital Orthonormalization  ....       0.001 sec  (  0.3%)
DIIS solution               ....       0.002 sec  (  0.5%)
SOSCF solution              ....       0.002 sec  (  0.5%)
Grid generation             ....       0.157 sec  ( 46.9%)

Maximum memory used throughout the entire SCF-calculation: 12.7 MB


-------------------------------------------------------------------------------
                          DFT DISPERSION CORRECTION                            
                                                                               
                                 DFTD4 V2.5                                    
-------------------------------------------------------------------------------
The R2SCAN3C composite method is recognized
Using three-body term ABC
Active option DFTDOPT                   ...         5   

Starting D4
-------------------------   ----------------
Dispersion correction           -0.000852459
-------------------------   ----------------

------------------   -----------------
gCP correction             0.004146191
------------------   -----------------

-------------------------   --------------------
FINAL SINGLE POINT ENERGY     -2713.899349987430
-------------------------   --------------------

                                *** OPTIMIZATION RUN DONE ***

                            ***************************************
                            *     ORCA property calculations      *
                            ***************************************

                                    ---------------------
                                    Active property flags
                                    ---------------------
   (+) Dipole Moment


------------------------------------------------------------------------------
                       ORCA ELECTRIC PROPERTIES CALCULATION
------------------------------------------------------------------------------

Dipole Moment Calculation                       ... on
Quadrupole Moment Calculation                   ... off
Polarizability Calculation                      ... off
GBWName                                         ... /home/wontleave/calc/autoopt/methylBr_F/run.optTS.r2scan-3c.gbw
Electron density                                ... /home/wontleave/calc/autoopt/methylBr_F/run.optTS.r2scan-3c.scfp
The origin for moment calculation is the CENTER OF MASS  = (-1.551396, -0.324896  0.179935)

-------------
DIPOLE MOMENT
-------------
                                X             Y             Z
Electronic contribution:     13.70151       1.22106       0.24908
Nuclear contribution   :     -9.99305      -1.77265      -0.51126
                        -----------------------------------------
Total Dipole Moment    :      3.70846      -0.55159      -0.26218
                        -----------------------------------------
Magnitude (a.u.)       :      3.75841
Magnitude (Debye)      :      9.55313



--------------------
Rotational spectrum 
--------------------
 
Rotational constants in cm-1:     2.198754     0.051909     0.051216 
Rotational constants in MHz : 65916.987153  1556.178950  1535.426857 

 Dipole components along the rotational axes: 
x,y,z [a.u.] :    -3.733214    -0.434495     0.000022 
x,y,z [Debye]:    -9.489075    -1.104399     0.000055 

 

Timings for individual modules:

Sum of individual times         ...        9.145 sec (=   0.152 min)
GTO integral calculation        ...        0.410 sec (=   0.007 min)   4.5 %
SCF iterations                  ...        1.792 sec (=   0.030 min)  19.6 %
SCF Gradient evaluation         ...        0.451 sec (=   0.008 min)   4.9 %
Geometry relaxation             ...        0.016 sec (=   0.000 min)   0.2 %
Analytical frequency calculation...        6.475 sec (=   0.108 min)  70.8 %
                             ****ORCA TERMINATED NORMALLY****
TOTAL RUN TIME: 0 days 0 hours 0 minutes 9 seconds 479 msec
